# vtk DataFile Version 2.0
Titre
ASCII
DATASET STRUCTURED_POINTS
DIMENSIONS 21 101 1
ORIGIN 0.0 0.0 0.0
SPACING 0.005 0.01 0.0
POINT_DATA 2121 
VECTORS velocity float

-0.313225 3.62327 0	0.124607 1.68066 0	0.341605 2.52652 0	0.49579 1.88308 0	0.632419 2.01308 0	
0.722521 1.82516 0	0.801089 1.81267 0	0.857085 1.75762 0	0.906743 1.73389 0	0.949579 1.71882 0	
0.990032 1.71549 0	1.03085 1.7232 0	1.07493 1.74253 0	1.12542 1.77482 0	1.18598 1.82241 0	
1.26092 1.889 0	1.35513 1.98027 0	1.47318 2.10511 0	1.61615 2.27795 0	1.7357 2.52367 0	
2.48621 2.91607 0	
-4.25416 0.685173 0	-3.09467 1.01743 0	-2.36065 0.886215 0	-1.79335 0.842601 0	-1.36202 0.745024 0	
-1.02466 0.653789 0	-0.754074 0.57059 0	-0.529248 0.501586 0	-0.334252 0.450407 0	-0.156549 0.418913 0	
0.0143783 0.408131 0	0.188013 0.418549 0	0.373696 0.450289 0	0.581539 0.503133 0	0.823394 0.576417 0	
1.11414 0.668793 0	1.4735 0.777862 0	1.92892 0.899657 0	2.52059 1.02794 0	3.29455 1.15318 0	
4.42962 1.24896 0	
-2.8534 -0.993475 0	-2.40279 -0.39815 0	-2.06747 -0.03053 0	-1.72643 0.186828 0	-1.4123 0.323484 0	
-1.13244 0.403498 0	-0.884963 0.450082 0	-0.6648 0.47631 0	-0.465388 0.490336 0	-0.279693 0.497214 0	
-0.100637 0.499662 0	0.0788729 0.498653 0	0.26605 0.493591 0	0.468403 0.482149 0	0.693769 0.459819 0	
0.950087 0.418936 0	1.24459 0.346991 0	1.58179 0.223713 0	1.95923 0.0157989 0	2.34717 -0.333499 0	
2.86077 -0.908689 0	
-1.28531 -1.58396 0	-1.2339 -1.09 0	-1.18644 -0.691662 0	-1.06991 -0.391037 0	-0.928774 -0.167347 0	
-0.775444 -0.00565321 0	-0.61901 0.108631 0	-0.464711 0.187137 0	-0.314232 0.238121 0	-0.167145 0.267063 0	
-0.0218418 0.277107 0	0.12386 0.269368 0	0.272261 0.242905 0	0.425313 0.19473 0	0.584041 0.119483 0	
0.747624 0.00894216 0	0.911914 -0.14866 0	1.0669 -0.368661 0	1.19477 -0.66681 0	1.25421 -1.06576 0	
1.31887 -1.56646 0	
-0.446573 -1.35335 0	-0.519746 -1.08341 0	-0.589669 -0.83194 0	-0.58875 -0.618038 0	-0.547212 -0.442891 0	
-0.479696 -0.303991 0	-0.396216 -0.197196 0	-0.30331 -0.117736 0	-0.205192 -0.0633802 0	-0.104408 -0.0315013 0	
-0.00248082 -0.0204546 0	0.0995642 -0.0296532 0	0.200718 -0.0596699 0	0.299494 -0.112159 0	0.393391 -0.189806 0	
0.478758 -0.295032 0	0.548967 -0.432706 0	0.593915 -0.607383 0	0.598773 -0.82212 0	0.53285 -1.07637 0	
0.463098 -1.35153 0	
-0.0540511 -1.03564 0	-0.137124 -0.905449 0	-0.228298 -0.765701 0	-0.269227 -0.633939 0	-0.277331 -0.516792 0	
-0.260813 -0.417378 0	-0.226468 -0.336765 0	-0.179673 -0.274889 0	-0.124591 -0.231195 0	-0.0644568 -0.205053 0	
-0.00188304 -0.196001 0	0.0608316 -0.203877 0	0.121394 -0.228878 0	0.177204 -0.271514 0	0.225043 -0.332485 0	
0.26075 -0.412446 0	0.278916 -0.511602 0	0.272651 -0.629062 0	0.233557 -0.761903 0	0.143887 -0.90364 0	
0.0617913 -1.03666 0	
0.115969 -0.779424 0	0.0484434 -0.723692 0	-0.0313874 -0.653578 0	-0.0793387 -0.580571 0	-0.105357 -0.510558 0	
-0.113215 -0.447507 0	-0.106673 -0.393916 0	-0.0892199 -0.351251 0	-0.0639803 -0.320311 0	-0.0337354 -0.301492 0	
-0.00100811 -0.294968 0	0.0318163 -0.300801 0	0.0623513 -0.31897 0	0.0880685 -0.349348 0	0.106173 -0.391591 0	
0.113511 -0.44496 0	0.106544 -0.50806 0	0.0814247 -0.578454 0	0.0342602 -0.65222 0	-0.0450494 -0.723464 0	
-0.112312 -0.780584 0	
0.180627 -0.596439 0	0.128975 -0.577702 0	0.0664422 -0.546629 0	0.0234915 -0.510145 0	-0.0059972 -0.472233 0	
-0.0235237 -0.436018 0	-0.0309611 -0.403829 0	-0.0303394 -0.377328 0	-0.0237154 -0.357643 0	-0.0131115 -0.34549 0	
-0.000502939 -0.341267 0	0.0121647 -0.345111 0	0.022943 -0.356917 0	0.0298474 -0.376318 0	0.0308382 -0.402633 0	
0.0238315 -0.434765 0	0.00675821 -0.471081 0	-0.0223072 -0.509268 0	-0.0649282 -0.546204 0	-0.127291 -0.577875 0	
-0.178885 -0.597286 0	
0.19494 -0.469619 0	0.155339 -0.468784 0	0.108237 -0.45872 0	0.0730898 -0.443478 0	0.0457923 -0.425541 0	
0.0258576 -0.407031 0	0.0124258 -0.389687 0	0.00439146 -0.374865 0	0.00050084 -0.36357 0	-0.000582606 -0.356485 0	
-0.000236946 -0.354011 0	0.000142094 -0.356288 0	-0.000843739 -0.363196 0	-0.00458017 -0.374356 0	-0.0124168 -0.3891 0	
-0.0256263 -0.406443 0	-0.0453384 -0.425035 0	-0.072442 -0.443143 0	-0.107455 -0.458635 0	-0.154511 -0.469008 0	
-0.194112 -0.470171 0	
0.185136 -0.381677 0	0.15448 -0.389653 0	0.119481 -0.390321 0	0.0917928 -0.386876 0	0.0684675 -0.380669 0	
0.0494289 -0.37305 0	0.0343242 -0.365193 0	0.0225866 -0.35807 0	0.013496 -0.352433 0	0.00622843 -0.348816 0	
-0.00010334 -0.347541 0	-0.00641727 -0.348718 0	-0.013633 -0.35225 0	-0.022643 -0.357825 0	-0.0342793 -0.36492 0	
-0.0492737 -0.372788 0	-0.0682066 -0.380464 0	-0.0914462 -0.386769 0	-0.119083 -0.39035 0	-0.154075 -0.389824 0	
-0.184749 -0.382026 0	
0.16352 -0.317742 0	0.14111 -0.333736 0	0.114861 -0.33835 0	0.0934361 -0.341058 0	0.074294 -0.341345 0	
0.0574872 -0.34002 0	0.0429089 -0.337835 0	0.0302945 -0.335435 0	0.0192579 -0.333336 0	0.00932402 -0.331914 0	
-3.96019e-05 -0.331398 0	-0.00939412 -0.331868 0	-0.0193017 -0.333251 0	-0.0302979 -0.335324 0	-0.0428626 -0.337716 0	
-0.0573884 -0.339914 0	-0.0741472 -0.341274 0	-0.0932536 -0.341042 0	-0.114662 -0.338405 0	-0.140916 -0.333862 0	
-0.163358 -0.317987 0	
0.138815 -0.274093 0	0.122264 -0.292981 0	0.102724 -0.299331 0	0.0863366 -0.304892 0	0.0710101 -0.30847 0	
0.0568214 -0.310508 0	0.0437828 -0.311468 0	0.031796 -0.31176 0	0.0206759 -0.311716 0	0.0101718 -0.311584 0	
-1.11336e-05 -0.311515 0	-0.0101896 -0.311564 0	-0.020681 -0.31168 0	-0.0317818 -0.311714 0	-0.0437453 -0.311423 0	
-0.0567601 -0.310472 0	-0.0709285 -0.308456 0	-0.0862419 -0.304908 0	-0.102627 -0.299383 0	-0.122175 -0.293069 0	
-0.138747 -0.274237 0	
0.114787 -0.244825 0	0.102232 -0.263529 0	0.0877955 -0.270254 0	0.07539 -0.276803 0	0.0633291 -0.281771 0	
0.0516996 -0.285375 0	0.0405657 -0.287891 0	0.0299179 -0.289567 0	0.0196882 -0.290606 0	0.00976357 -0.291165 0	
3.30778e-07 -0.291337 0	-0.00976086 -0.291157 0	-0.0196796 -0.290593 0	-0.0299006 -0.289551 0	-0.0405382 -0.287878 0	
-0.0516622 -0.285369 0	-0.0632841 -0.281777 0	-0.0753415 -0.276826 0	-0.087749 -0.270296 0	-0.102193 -0.263588 0	
-0.114761 -0.24491 0	
0.0929926 -0.225259 0	0.0832612 -0.242398 0	0.0726867 -0.248739 0	0.0633831 -0.255255 0	0.0540244 -0.260526 0	
0.0446994 -0.264641 0	0.0354907 -0.267757 0	0.0264334 -0.270015 0	0.0175247 -0.271535 0	0.00873245 -0.272408 0	
4.0505e-06 -0.272692 0	-0.00872347 -0.272406 0	-0.0175133 -0.271531 0	-0.0264183 -0.270012 0	-0.0354716 -0.267757 0	
-0.0446768 -0.264646 0	-0.0539997 -0.260538 0	-0.0633587 -0.255275 0	-0.0726654 -0.248769 0	-0.0832459 -0.242436 0	
-0.092985 -0.22531 0	
0.0740605 -0.212309 0	0.06641 -0.227348 0	0.058737 -0.232939 0	0.0518241 -0.238902 0	0.0446524 -0.243894 0	
0.0373068 -0.247934 0	0.0298718 -0.251103 0	0.0224019 -0.253477 0	0.014928 -0.255122 0	0.00746242 -0.256087 0	
4.53045e-06 -0.256405 0	-0.00745303 -0.256087 0	-0.0149177 -0.255122 0	-0.0223903 -0.253479 0	-0.029859 -0.251107 0	
-0.0372932 -0.247941 0	-0.0446389 -0.243905 0	-0.051812 -0.238918 0	-0.0587278 -0.23296 0	-0.0664052 -0.227372 0	
-0.0740604 -0.21234 0	
0.0581084 -0.203885 0	0.0520495 -0.216722 0	0.0465385 -0.221434 0	0.0414516 -0.226621 0	0.0360203 -0.231056 0	
0.0303221 -0.234723 0	0.0244352 -0.237658 0	0.0184195 -0.239897 0	0.0123208 -0.24147 0	0.00617342 -0.242404 0	
3.8562e-06 -0.242713 0	-0.00616562 -0.242405 0	-0.0123127 -0.241472 0	-0.0184112 -0.2399 0	-0.0244268 -0.237663 0	
-0.030314 -0.23473 0	-0.036013 -0.231065 0	-0.0414457 -0.226632 0	-0.0465349 -0.221448 0	-0.052049 -0.216737 0	
-0.0581107 -0.203903 0	
0.0449774 -0.198548 0	0.0401691 -0.209296 0	0.0362551 -0.213138 0	0.0325508 -0.217495 0	0.0284855 -0.221274 0	
0.0241266 -0.224445 0	0.0195428 -0.227016 0	0.014792 -0.228999 0	0.0099238 -0.230405 0	0.00498133 -0.231245 0	
2.92695e-06 -0.231524 0	-0.00497548 -0.231246 0	-0.009918 -0.230407 0	-0.0147863 -0.229002 0	-0.0195374 -0.22702 0	
-0.0241218 -0.22445 0	-0.0284815 -0.221281 0	-0.0325481 -0.217503 0	-0.0362541 -0.213148 0	-0.04017 -0.209306 0	
-0.04498 -0.198559 0	
0.0343717 -0.195302 0	0.030562 -0.204173 0	0.027817 -0.207224 0	0.0251507 -0.210788 0	0.0221441 -0.213915 0	
0.0188539 -0.216564 0	0.0153383 -0.218733 0	0.0116493 -0.220419 0	0.00783465 -0.221622 0	0.00393843 -0.222344 0	
2.08493e-06 -0.222584 0	-0.0039343 -0.222344 0	-0.00783064 -0.221624 0	-0.0116455 -0.220422 0	-0.0153349 -0.218736 0	
-0.018851 -0.216568 0	-0.0221419 -0.213919 0	-0.0251495 -0.210794 0	-0.0278169 -0.20723 0	-0.0305632 -0.204179 0	
-0.034374 -0.195308 0	
0.0259429 -0.193454 0	0.0229356 -0.200694 0	0.0210385 -0.203063 0	0.0191448 -0.20592 0	0.0169492 -0.208447 0	
0.0144985 -0.210606 0	0.0118402 -0.212385 0	0.00901944 -0.213777 0	0.00607893 -0.214774 0	0.0030597 -0.215374 0	
1.42629e-06 -0.215574 0	-0.00305689 -0.215374 0	-0.00607625 -0.214775 0	-0.00901697 -0.213778 0	-0.0118381 -0.212388 0	
-0.0144968 -0.210608 0	-0.0169481 -0.20845 0	-0.0191443 -0.205924 0	-0.0210387 -0.203067 0	-0.0229367 -0.200698 0	
-0.0259447 -0.193458 0	
0.0193389 -0.192523 0	0.0169766 -0.198381 0	0.0156883 -0.200184 0	0.0143645 -0.202435 0	0.0127835 -0.204438 0	
0.0109827 -0.206162 0	0.00900082 -0.20759 0	0.00687525 -0.208712 0	0.00464279 -0.20952 0	0.00233951 -0.210006 0	
9.48754e-07 -0.210169 0	-0.00233765 -0.210006 0	-0.00464103 -0.20952 0	-0.00687367 -0.208714 0	-0.00899949 -0.207592 0	
-0.0109817 -0.206163 0	-0.0127828 -0.20444 0	-0.0143643 -0.202437 0	-0.0156886 -0.200186 0	-0.0169775 -0.198383 0	
-0.0193401 -0.192525 0	
0.014231 -0.192178 0	0.0123854 -0.196886 0	0.0115299 -0.198232 0	0.0106222 -0.199978 0	0.00950174 -0.201541 0	
0.00819796 -0.202894 0	0.0067415 -0.20402 0	0.00516295 -0.204908 0	0.00349293 -0.205548 0	0.00176199 -0.205935 0	
6.18255e-07 -0.206065 0	-0.00176078 -0.205936 0	-0.0034918 -0.205549 0	-0.00516195 -0.204909 0	-0.00674068 -0.204021 0	
-0.00819736 -0.202895 0	-0.0095014 -0.201543 0	-0.0106222 -0.199979 0	-0.0115302 -0.198233 0	-0.0123861 -0.196887 0	
-0.0142318 -0.192179 0	
0.010328 -0.192194 0	0.00889406 -0.195958 0	0.00834259 -0.196944 0	0.00773551 -0.198279 0	0.00695628 -0.199481 0	
0.00602776 -0.200527 0	0.00497392 -0.201401 0	0.00381924 -0.202092 0	0.0025886 -0.202592 0	0.00130721 -0.202894 0	
3.96595e-07 -0.202996 0	-0.00130644 -0.202895 0	-0.00258788 -0.202592 0	-0.0038186 -0.202092 0	-0.00497342 -0.201401 0	
-0.00602741 -0.200527 0	-0.0069561 -0.199482 0	-0.00773552 -0.19828 0	-0.00834281 -0.196944 0	-0.00889449 -0.195959 0	
-0.0103286 -0.192195 0	
0.00738055 -0.192419 0	0.00627228 -0.195418 0	0.00593165 -0.196124 0	0.00553904 -0.197133 0	0.00500971 -0.198045 0	
0.0043611 -0.198841 0	0.00361174 -0.19951 0	0.0027809 -0.20004 0	0.00188845 -0.200425 0	0.000954711 -0.200658 0	
2.51263e-07 -0.200736 0	-0.000954221 -0.200658 0	-0.001888 -0.200425 0	-0.00278051 -0.20004 0	-0.00361143 -0.19951 0	
-0.00436089 -0.198842 0	-0.00500962 -0.198045 0	-0.00553907 -0.197133 0	-0.00593181 -0.196125 0	-0.00627257 -0.195418 0	
-0.00738093 -0.19242 0	
0.00518055 -0.192753 0	0.0043283 -0.195137 0	0.00413154 -0.195632 0	0.00388978 -0.196383 0	0.0035411 -0.197066 0	
0.00309865 -0.197665 0	0.00257659 -0.198169 0	0.00198988 -0.19857 0	0.00135412 -0.198862 0	0.000685418 -0.199039 0	
1.57594e-07 -0.199098 0	-0.000685111 -0.199039 0	-0.00135384 -0.198862 0	-0.00198964 -0.198571 0	-0.0025764 -0.198169 0	
-0.00309853 -0.197665 0	-0.00354105 -0.197066 0	-0.00388981 -0.196383 0	-0.00413165 -0.195632 0	-0.00432849 -0.195138 0	
-0.00518079 -0.192753 0	
0.00355811 -0.19313 0	0.00290581 -0.195027 0	0.0028053 -0.195363 0	0.00266779 -0.195915 0	0.00244782 -0.196419 0	
0.00215519 -0.196863 0	0.00180058 -0.197239 0	0.00139546 -0.197538 0	0.00095192 -0.197756 0	0.000482515 -0.197889 0	
9.80265e-08 -0.197933 0	-0.000482324 -0.197889 0	-0.000951746 -0.197757 0	-0.00139531 -0.197539 0	-0.00180046 -0.197239 0	
-0.00215512 -0.196864 0	-0.0024478 -0.196419 0	-0.00266781 -0.195915 0	-0.00280537 -0.195363 0	-0.00290593 -0.195027 0	
-0.00355826 -0.193131 0	
0.00237683 -0.193512 0	0.00187975 -0.195023 0	0.00184195 -0.195243 0	0.00177493 -0.195643 0	0.00164513 -0.19601 0	
0.00145975 -0.196335 0	0.00122677 -0.19661 0	0.000954876 -0.196831 0	0.000653306 -0.196992 0	0.000331722 -0.19709 0	
6.05498e-08 -0.197122 0	-0.000331605 -0.19709 0	-0.000653199 -0.196992 0	-0.000954785 -0.196831 0	-0.0012267 -0.196611 0	
-0.00145971 -0.196335 0	-0.00164512 -0.19601 0	-0.00177495 -0.195643 0	-0.001842 -0.195243 0	-0.00187983 -0.195023 0	
-0.00237693 -0.193512 0	
0.00152881 -0.193875 0	0.00115156 -0.195084 0	0.00115313 -0.19522 0	0.00113242 -0.195505 0	0.0010645 -0.195768 0	
0.000954585 -0.196002 0	0.000808579 -0.196201 0	0.000632976 -0.196361 0	0.000434752 -0.196478 0	0.000221245 -0.196549 0	
3.7179e-08 -0.196573 0	-0.000221173 -0.196549 0	-0.000434686 -0.196478 0	-0.00063292 -0.196361 0	-0.000808538 -0.196201 0	
-0.00095456 -0.196002 0	-0.00106449 -0.195768 0	-0.00113243 -0.195505 0	-0.00115316 -0.19522 0	-0.0011516 -0.195084 0	
-0.00152887 -0.193875 0	
0.000929775 -0.194205 0	0.000644555 -0.195179 0	0.00066951 -0.195256 0	0.000678015 -0.195455 0	0.000651445 -0.19564 0	
0.000593543 -0.195806 0	0.00050861 -0.195947 0	0.000401447 -0.196062 0	0.000277257 -0.196145 0	0.000141546 -0.196196 0	
2.2713e-08 -0.196213 0	-0.000141502 -0.196196 0	-0.000277217 -0.196145 0	-0.000401414 -0.196062 0	-0.000508585 -0.195948 0	
-0.000593528 -0.195806 0	-0.000651442 -0.19564 0	-0.000678023 -0.195455 0	-0.000669529 -0.195256 0	-0.000644585 -0.195179 0	
-0.000929812 -0.194205 0	
0.000514692 -0.194499 0	0.000299828 -0.19529 0	0.000337387 -0.195326 0	0.00036321 -0.195462 0	0.000363307 -0.19559 0	
0.000340317 -0.195705 0	0.000297337 -0.195803 0	0.00023787 -0.195883 0	0.000165746 -0.195942 0	8.50451e-05 -0.195977 0	
1.38131e-08 -0.19599 0	-8.50184e-05 -0.195977 0	-0.000165722 -0.195942 0	-0.000237849 -0.195883 0	-0.000297322 -0.195803 0	
-0.000340308 -0.195705 0	-0.000363305 -0.19559 0	-0.000363215 -0.195462 0	-0.000337399 -0.195326 0	-0.000299847 -0.19529 0	
-0.000514714 -0.194499 0	
0.000233902 -0.194753 0	7.25956e-05 -0.195405 0	0.000115668 -0.195414 0	0.000150692 -0.195504 0	0.000167103 -0.195589 0	
0.000166731 -0.195667 0	0.00015177 -0.195734 0	0.000124742 -0.195788 0	8.84271e-05 -0.195828 0	4.58103e-05 -0.195853 0	
8.36792e-09 -0.195861 0	-4.57941e-05 -0.195853 0	-8.84125e-05 -0.195828 0	-0.000124729 -0.195788 0	-0.000151761 -0.195734 0	
-0.000166726 -0.195667 0	-0.000167102 -0.195589 0	-0.000150695 -0.195504 0	-0.000115676 -0.195414 0	-7.26071e-05 -0.195405 0	
-0.000233916 -0.194753 0	
4.98901e-05 -0.194971 0	-7.08061e-05 -0.195515 0	-2.6736e-05 -0.195507 0	1.20862e-05 -0.195564 0	3.76489e-05 -0.195619 0	
5.11902e-05 -0.19567 0	5.4239e-05 -0.195714 0	4.85792e-05 -0.19575 0	3.62024e-05 -0.195777 0	1.92589e-05 -0.195793 0	
5.05077e-09 -0.195799 0	-1.92491e-05 -0.195793 0	-3.61936e-05 -0.195777 0	-4.85718e-05 -0.19575 0	-5.42337e-05 -0.195714 0	
-5.11872e-05 -0.19567 0	-3.76485e-05 -0.195619 0	-1.20884e-05 -0.195564 0	2.67313e-05 -0.195507 0	7.07991e-05 -0.195515 0	
-4.98986e-05 -0.194971 0	
-6.53936e-05 -0.195155 0	-0.00015541 -0.195618 0	-0.000113085 -0.195599 0	-7.39374e-05 -0.195633 0	-4.4068e-05 -0.195666 0	
-2.26624e-05 -0.195698 0	-8.67966e-06 -0.195725 0	-8.8064e-07 -0.195748 0	2.13582e-06 -0.195765 0	1.89441e-06 -0.195776 0	
3.04009e-09 -0.195779 0	-1.88853e-06 -0.195776 0	-2.13051e-06 -0.195765 0	8.85026e-07 -0.195748 0	8.68283e-06 -0.195725 0	
2.26642e-05 -0.195698 0	4.40682e-05 -0.195666 0	7.39361e-05 -0.195633 0	0.000113082 -0.195599 0	0.000155405 -0.195618 0	
6.53884e-05 -0.195155 0	
-0.000132703 -0.195309 0	-0.000199621 -0.195709 0	-0.000160582 -0.195685 0	-0.000123233 -0.195703 0	-9.2235e-05 -0.195722 0	
-6.70743e-05 -0.19574 0	-4.70624e-05 -0.195756 0	-3.13588e-05 -0.195769 0	-1.8998e-05 -0.19578 0	-8.91939e-06 -0.195786 0	
1.82551e-09 -0.195788 0	8.92292e-06 -0.195786 0	1.90011e-05 -0.19578 0	3.13614e-05 -0.195769 0	4.70643e-05 -0.195756 0	
6.70753e-05 -0.19574 0	9.22351e-05 -0.195722 0	0.000123232 -0.195703 0	0.000160581 -0.195685 0	0.000199618 -0.195709 0	
0.0001327 -0.195309 0	
-0.000167225 -0.195437 0	-0.000216809 -0.19579 0	-0.0001818 -0.195763 0	-0.000147444 -0.195771 0	-0.000117315 -0.195779 0	
-9.11083e-05 -0.195788 0	-6.8386e-05 -0.195796 0	-4.85957e-05 -0.195804 0	-3.10895e-05 -0.195809 0	-1.51471e-05 -0.195813 0	
1.09261e-09 -0.195814 0	1.51492e-05 -0.195813 0	3.10914e-05 -0.195809 0	4.85973e-05 -0.195804 0	6.83871e-05 -0.195796 0	
9.11089e-05 -0.195788 0	0.000117315 -0.195779 0	0.000147444 -0.195771 0	0.000181799 -0.195763 0	0.000216808 -0.19579 0	
0.000167224 -0.195437 0	
-0.00017994 -0.195542 0	-0.000216557 -0.19586 0	-0.000185806 -0.195833 0	-0.000155015 -0.195833 0	-0.00012693 -0.195835 0	
-0.000101389 -0.195838 0	-7.81308e-05 -0.195841 0	-5.6808e-05 -0.195844 0	-3.70009e-05 -0.195846 0	-1.82351e-05 -0.195848 0	
6.52277e-10 -0.195848 0	1.82364e-05 -0.195848 0	3.7002e-05 -0.195846 0	5.6809e-05 -0.195844 0	7.81314e-05 -0.195841 0	
0.000101389 -0.195838 0	0.00012693 -0.195835 0	0.000155015 -0.195833 0	0.000185806 -0.195833 0	0.000216556 -0.19586 0	
0.000179939 -0.195542 0	
-0.000178679 -0.195628 0	-0.000205628 -0.195919 0	-0.000179045 -0.195894 0	-0.000151981 -0.19589 0	-0.000126553 -0.195888 0	
-0.000102692 -0.195887 0	-8.02607e-05 -0.195886 0	-5.90526e-05 -0.195886 0	-3.88102e-05 -0.195887 0	-1.92347e-05 -0.195887 0	
3.89018e-10 -0.195887 0	1.92354e-05 -0.195887 0	3.88109e-05 -0.195887 0	5.90532e-05 -0.195886 0	8.02611e-05 -0.195886 0	
0.000102693 -0.195887 0	0.000126553 -0.195888 0	0.000151981 -0.19589 0	0.000179044 -0.195894 0	0.000205627 -0.195919 0	
0.000178679 -0.195628 0	
-0.000168945 -0.195698 0	-0.000188706 -0.19597 0	-0.000166015 -0.195946 0	-0.000142588 -0.19594 0	-0.000120055 -0.195935 0	
-9.84127e-05 -0.195932 0	-7.76009e-05 -0.195929 0	-5.75135e-05 -0.195928 0	-3.80048e-05 -0.195927 0	-1.8899e-05 -0.195926 0	
2.31228e-10 -0.195926 0	1.88994e-05 -0.195926 0	3.80052e-05 -0.195927 0	5.75139e-05 -0.195928 0	7.76011e-05 -0.195929 0	
9.84128e-05 -0.195932 0	0.000120055 -0.195935 0	0.000142588 -0.19594 0	0.000166015 -0.195946 0	0.000188705 -0.19597 0	
0.000168945 -0.195698 0	
-0.000154529 -0.195755 0	-0.000168963 -0.196012 0	-0.000149795 -0.195991 0	-0.000129762 -0.195983 0	-0.000110125 -0.195977 0	
-9.09164e-05 -0.195973 0	-7.21302e-05 -0.195969 0	-5.37252e-05 -0.195966 0	-3.56319e-05 -0.195965 0	-1.77589e-05 -0.195964 0	
1.37338e-10 -0.195963 0	1.77592e-05 -0.195964 0	3.56322e-05 -0.195965 0	5.37254e-05 -0.195966 0	7.21303e-05 -0.195969 0	
9.09165e-05 -0.195973 0	0.000110125 -0.195977 0	0.000129762 -0.195983 0	0.000149795 -0.195991 0	0.000168963 -0.196012 0	
0.000154528 -0.195755 0	
-0.000137983 -0.1958 0	-0.000148482 -0.196047 0	-0.000132429 -0.196029 0	-0.000115471 -0.196021 0	-9.85827e-05 -0.196014 0	
-8.18191e-05 -0.196009 0	-6.52057e-05 -0.196005 0	-4.87437e-05 -0.196002 0	-3.2414e-05 -0.196 0	-1.61813e-05 -0.195998 0	
8.167e-11 -0.195998 0	1.61815e-05 -0.195998 0	3.24141e-05 -0.196 0	4.87439e-05 -0.196002 0	6.52058e-05 -0.196005 0	
8.18191e-05 -0.196009 0	9.85827e-05 -0.196014 0	0.000115471 -0.196021 0	0.000132429 -0.196029 0	0.000148482 -0.196047 0	
0.000137983 -0.1958 0	
-0.000120971 -0.195837 0	-0.000128574 -0.196076 0	-0.000115228 -0.19606 0	-0.000100994 -0.196052 0	-8.66269e-05 -0.196046 0	
-7.2192e-05 -0.19604 0	-5.77332e-05 -0.196036 0	-4.32774e-05 -0.196033 0	-2.8837e-05 -0.196031 0	-1.44134e-05 -0.196029 0	
4.81253e-11 -0.196029 0	1.44135e-05 -0.196029 0	2.88371e-05 -0.196031 0	4.32775e-05 -0.196033 0	5.77333e-05 -0.196036 0	
7.2192e-05 -0.19604 0	8.66269e-05 -0.196046 0	0.000100994 -0.196052 0	0.000115228 -0.19606 0	0.000128574 -0.196076 0	
0.000120971 -0.195837 0	
-0.000104532 -0.195867 0	-0.00011001 -0.1961 0	-9.89837e-05 -0.196086 0	-8.71225e-05 -0.196079 0	-7.50117e-05 -0.196073 0	
-6.27183e-05 -0.196068 0	-5.02955e-05 -0.196064 0	-3.77848e-05 -0.19606 0	-2.52173e-05 -0.196058 0	-1.26163e-05 -0.196057 0	
2.83111e-11 -0.196056 0	1.26164e-05 -0.196057 0	2.52173e-05 -0.196058 0	3.77849e-05 -0.19606 0	5.02956e-05 -0.196064 0	
6.27183e-05 -0.196068 0	7.50117e-05 -0.196073 0	8.71225e-05 -0.196079 0	9.89837e-05 -0.196086 0	0.00011001 -0.1961 0	
0.000104532 -0.195867 0	
-8.92662e-05 -0.195891 0	-9.31912e-05 -0.196119 0	-8.41326e-05 -0.196108 0	-7.43112e-05 -0.196101 0	-6.41812e-05 -0.196095 0	
-5.3808e-05 -0.196091 0	-4.32477e-05 -0.196087 0	-3.25481e-05 -0.196084 0	-2.17504e-05 -0.196082 0	-1.08903e-05 -0.196081 0	
1.60909e-11 -0.19608 0	1.08904e-05 -0.196081 0	2.17504e-05 -0.196082 0	3.25482e-05 -0.196084 0	4.32477e-05 -0.196087 0	
5.3808e-05 -0.196091 0	6.41812e-05 -0.196095 0	7.43112e-05 -0.196101 0	8.41326e-05 -0.196108 0	9.31912e-05 -0.196119 0	
8.92662e-05 -0.195891 0	
-7.54808e-05 -0.195909 0	-7.82753e-05 -0.196135 0	-7.08697e-05 -0.196125 0	-6.27829e-05 -0.196119 0	-5.43672e-05 -0.196114 0	
-4.56836e-05 -0.19611 0	-3.6787e-05 -0.196107 0	-2.7727e-05 -0.196104 0	-1.85485e-05 -0.196102 0	-9.29318e-06 -0.196101 0	
9.9856e-12 -0.196101 0	9.2932e-06 -0.196101 0	1.85486e-05 -0.196102 0	2.7727e-05 -0.196104 0	3.6787e-05 -0.196107 0	
4.56836e-05 -0.19611 0	5.43672e-05 -0.196114 0	6.27829e-05 -0.196119 0	7.08697e-05 -0.196125 0	7.82753e-05 -0.196135 0	
7.54808e-05 -0.195909 0	
-6.32855e-05 -0.195924 0	-6.52606e-05 -0.196148 0	-5.92337e-05 -0.19614 0	-5.26088e-05 -0.196135 0	-4.56595e-05 -0.19613 0	
-3.84408e-05 -0.196127 0	-3.10043e-05 -0.196123 0	-2.33979e-05 -0.196121 0	-1.56667e-05 -0.196119 0	-7.85359e-06 -0.196118 0	
6.01999e-12 -0.196118 0	7.8536e-06 -0.196118 0	1.56667e-05 -0.196119 0	2.33979e-05 -0.196121 0	3.10043e-05 -0.196123 0	
3.84408e-05 -0.196127 0	4.56595e-05 -0.19613 0	5.26088e-05 -0.196135 0	5.92337e-05 -0.19614 0	6.52606e-05 -0.196148 0	
6.32855e-05 -0.195924 0	
-5.26651e-05 -0.195936 0	-5.40492e-05 -0.196158 0	-4.9165e-05 -0.196152 0	-4.37633e-05 -0.196147 0	-3.80565e-05 -0.196143 0	
-3.20933e-05 -0.19614 0	-2.59204e-05 -0.196137 0	-1.95824e-05 -0.196135 0	-1.31221e-05 -0.196134 0	-6.58108e-06 -0.196133 0	
4.09517e-12 -0.196133 0	6.58109e-06 -0.196133 0	1.31221e-05 -0.196134 0	1.95824e-05 -0.196135 0	2.59204e-05 -0.196137 0	
3.20933e-05 -0.19614 0	3.80565e-05 -0.196143 0	4.37633e-05 -0.196147 0	4.9165e-05 -0.196152 0	5.40492e-05 -0.196158 0	
5.26651e-05 -0.195936 0	
-4.3529e-05 -0.195946 0	-4.44891e-05 -0.196167 0	-4.05472e-05 -0.196161 0	-3.61628e-05 -0.196157 0	-3.15008e-05 -0.196154 0	
-2.66036e-05 -0.196151 0	-2.15123e-05 -0.196149 0	-1.62674e-05 -0.196147 0	-1.09081e-05 -0.196146 0	-5.47291e-06 -0.196145 0	
2.46019e-12 -0.196145 0	5.47292e-06 -0.196145 0	1.09081e-05 -0.196146 0	1.62674e-05 -0.196147 0	2.15123e-05 -0.196149 0	
2.66036e-05 -0.196151 0	3.15008e-05 -0.196154 0	3.61628e-05 -0.196157 0	4.05472e-05 -0.196161 0	4.44891e-05 -0.196167 0	
4.3529e-05 -0.195946 0	
-3.5745e-05 -0.195953 0	-3.64026e-05 -0.196173 0	-3.32345e-05 -0.196169 0	-2.96922e-05 -0.196166 0	-2.59034e-05 -0.196163 0	
-2.19044e-05 -0.19616 0	-1.77312e-05 -0.196158 0	-1.34192e-05 -0.196157 0	-9.00349e-06 -0.196156 0	-4.51894e-06 -0.196155 0	
1.17802e-12 -0.196155 0	4.51894e-06 -0.196155 0	9.00349e-06 -0.196156 0	1.34192e-05 -0.196157 0	1.77312e-05 -0.196158 0	
2.19044e-05 -0.19616 0	2.59034e-05 -0.196163 0	2.96922e-05 -0.196166 0	3.32345e-05 -0.196169 0	3.64026e-05 -0.196173 0	
3.5745e-05 -0.195953 0	
-2.91619e-05 -0.195959 0	-2.96051e-05 -0.196179 0	-2.70706e-05 -0.196175 0	-2.42227e-05 -0.196172 0	-2.11602e-05 -0.19617 0	
-1.79139e-05 -0.196168 0	-1.45145e-05 -0.196166 0	-1.09928e-05 -0.196165 0	-7.37938e-06 -0.196164 0	-3.70494e-06 -0.196163 0	
1.16613e-12 -0.196163 0	3.70495e-06 -0.196163 0	7.37938e-06 -0.196164 0	1.09928e-05 -0.196165 0	1.45145e-05 -0.196166 0	
1.79139e-05 -0.196168 0	2.11602e-05 -0.19617 0	2.42227e-05 -0.196172 0	2.70706e-05 -0.196175 0	2.96051e-05 -0.196179 0	
2.91619e-05 -0.195959 0	
-2.36242e-05 -0.195963 0	-2.39164e-05 -0.196183 0	-2.18998e-05 -0.19618 0	-1.96232e-05 -0.196178 0	-1.7163e-05 -0.196176 0	
-1.45448e-05 -0.196174 0	-1.17946e-05 -0.196173 0	-8.9387e-06 -0.196171 0	-6.0033e-06 -0.196171 0	-3.01491e-06 -0.19617 0	
2.21915e-13 -0.19617 0	3.01491e-06 -0.19617 0	6.0033e-06 -0.196171 0	8.9387e-06 -0.196171 0	1.17946e-05 -0.196173 0	
1.45448e-05 -0.196174 0	1.7163e-05 -0.196176 0	1.96232e-05 -0.196178 0	2.18998e-05 -0.19618 0	2.39164e-05 -0.196183 0	
2.36242e-05 -0.195963 0	
-1.89813e-05 -0.195967 0	-1.91677e-05 -0.196186 0	-1.75743e-05 -0.196184 0	-1.57675e-05 -0.196182 0	-1.38059e-05 -0.19618 0	
-1.17108e-05 -0.196179 0	-9.50377e-06 -0.196178 0	-7.20682e-06 -0.196177 0	-4.84221e-06 -0.196176 0	-2.43242e-06 -0.196176 0	
4.60182e-13 -0.196176 0	2.43242e-06 -0.196176 0	4.84222e-06 -0.196176 0	7.20682e-06 -0.196177 0	9.50377e-06 -0.196178 0	
1.17108e-05 -0.196179 0	1.38059e-05 -0.19618 0	1.57675e-05 -0.196182 0	1.75743e-05 -0.196184 0	1.91677e-05 -0.196186 0	
1.89813e-05 -0.195967 0	
-1.50923e-05 -0.19597 0	-1.52049e-05 -0.196189 0	-1.3958e-05 -0.196187 0	-1.2538e-05 -0.196185 0	-1.09896e-05 -0.196184 0	
-9.33001e-06 -0.196183 0	-7.57706e-06 -0.196182 0	-5.74896e-06 -0.196181 0	-3.86422e-06 -0.19618 0	-1.9416e-06 -0.19618 0	
5.10949e-13 -0.19618 0	1.9416e-06 -0.19618 0	3.86422e-06 -0.19618 0	5.74896e-06 -0.196181 0	7.57707e-06 -0.196182 0	
9.33001e-06 -0.196183 0	1.09896e-05 -0.196184 0	1.2538e-05 -0.196185 0	1.3958e-05 -0.196187 0	1.52049e-05 -0.196189 0	
1.50923e-05 -0.19597 0	
-1.18288e-05 -0.195972 0	-1.18898e-05 -0.196191 0	-1.09279e-05 -0.196189 0	-9.82774e-06 -0.196188 0	-8.62279e-06 -0.196187 0	
-7.3269e-06 -0.196186 0	-5.95447e-06 -0.196185 0	-4.52029e-06 -0.196184 0	-3.03953e-06 -0.196184 0	-1.52758e-06 -0.196184 0	
3.08552e-13 -0.196183 0	1.52758e-06 -0.196184 0	3.03953e-06 -0.196184 0	4.52029e-06 -0.196184 0	5.95447e-06 -0.196185 0	
7.3269e-06 -0.196186 0	8.62279e-06 -0.196187 0	9.82774e-06 -0.196188 0	1.09279e-05 -0.196189 0	1.18898e-05 -0.196191 0	
1.18288e-05 -0.195972 0	
-9.07547e-06 -0.195974 0	-9.09973e-06 -0.196192 0	-8.37441e-06 -0.196191 0	-7.54085e-06 -0.19619 0	-6.62348e-06 -0.196189 0	
-5.6332e-06 -0.196188 0	-4.58143e-06 -0.196187 0	-3.47996e-06 -0.196187 0	-2.34096e-06 -0.196187 0	-1.17679e-06 -0.196186 0	
-1.01041e-13 -0.196186 0	1.17679e-06 -0.196186 0	2.34096e-06 -0.196187 0	3.47996e-06 -0.196187 0	4.58143e-06 -0.196187 0	
5.6332e-06 -0.196188 0	6.62348e-06 -0.196189 0	7.54085e-06 -0.19619 0	8.37441e-06 -0.196191 0	9.09973e-06 -0.196192 0	
9.07547e-06 -0.195974 0	
-6.73007e-06 -0.195975 0	-6.72695e-06 -0.196194 0	-6.20071e-06 -0.196193 0	-5.59225e-06 -0.196192 0	-4.91852e-06 -0.196191 0	
-4.18786e-06 -0.19619 0	-3.40906e-06 -0.196189 0	-2.59129e-06 -0.196189 0	-1.74403e-06 -0.196189 0	-8.7698e-07 -0.196188 0	
-6.40384e-13 -0.196188 0	8.7698e-07 -0.196188 0	1.74403e-06 -0.196189 0	2.59129e-06 -0.196189 0	3.40906e-06 -0.196189 0	
4.18786e-06 -0.19619 0	4.91852e-06 -0.196191 0	5.59225e-06 -0.196192 0	6.20071e-06 -0.196193 0	6.72695e-06 -0.196194 0	
6.73007e-06 -0.195975 0	
-4.7022e-06 -0.195976 0	-4.67683e-06 -0.196194 0	-4.32157e-06 -0.196194 0	-3.90686e-06 -0.196193 0	-3.44323e-06 -0.196192 0	
-2.93675e-06 -0.196191 0	-2.39393e-06 -0.196191 0	-1.82162e-06 -0.19619 0	-1.22695e-06 -0.19619 0	-6.17247e-07 -0.19619 0	
2.41525e-13 -0.19619 0	6.17247e-07 -0.19619 0	1.22695e-06 -0.19619 0	1.82162e-06 -0.19619 0	2.39393e-06 -0.196191 0	
2.93675e-06 -0.196191 0	3.44323e-06 -0.196192 0	3.90686e-06 -0.196193 0	4.32157e-06 -0.196194 0	4.67683e-06 -0.196194 0	
4.70219e-06 -0.195976 0	
-2.91232e-06 -0.195976 0	-2.86657e-06 -0.196195 0	-2.66207e-06 -0.196194 0	-2.41857e-06 -0.196193 0	-2.14053e-06 -0.196193 0	
-1.83206e-06 -0.196192 0	-1.49763e-06 -0.196192 0	-1.14207e-06 -0.196191 0	-7.70419e-07 -0.196191 0	-3.87934e-07 -0.196191 0	
1.46713e-13 -0.196191 0	3.87934e-07 -0.196191 0	7.70419e-07 -0.196191 0	1.14207e-06 -0.196191 0	1.49764e-06 -0.196192 0	
1.83205e-06 -0.196192 0	2.14053e-06 -0.196193 0	2.41857e-06 -0.196193 0	2.66207e-06 -0.196194 0	2.86657e-06 -0.196195 0	
2.91233e-06 -0.195976 0	
-1.29062e-06 -0.195977 0	-1.22282e-06 -0.196195 0	-1.1562e-06 -0.196194 0	-1.06913e-06 -0.196194 0	-9.60177e-07 -0.196193 0	
-8.3169e-07 -0.196193 0	-6.86366e-07 -0.196192 0	-5.27208e-07 -0.196192 0	-3.57456e-07 -0.196192 0	-1.80536e-07 -0.196191 0	
2.29653e-13 -0.196191 0	1.80535e-07 -0.196191 0	3.57455e-07 -0.196192 0	5.27208e-07 -0.196192 0	6.86366e-07 -0.196192 0	
8.3169e-07 -0.196193 0	9.60178e-07 -0.196193 0	1.06913e-06 -0.196194 0	1.1562e-06 -0.196194 0	1.22282e-06 -0.196195 0	
1.29062e-06 -0.195977 0	
2.24133e-07 -0.195977 0	3.19401e-07 -0.196195 0	2.54236e-07 -0.196194 0	1.92704e-07 -0.196194 0	1.41977e-07 -0.196193 0	
1.01287e-07 -0.196193 0	6.95118e-08 -0.196192 0	4.52387e-08 -0.196192 0	2.68123e-08 -0.196192 0	1.23897e-08 -0.196192 0	
5.65214e-13 -0.196192 0	-1.23898e-08 -0.196192 0	-2.68126e-08 -0.196192 0	-4.52386e-08 -0.196192 0	-6.95121e-08 -0.196192 0	
-1.01287e-07 -0.196193 0	-1.41978e-07 -0.196193 0	-1.92704e-07 -0.196194 0	-2.54236e-07 -0.196194 0	-3.19403e-07 -0.196195 0	
-2.24137e-07 -0.195977 0	
1.68544e-06 -0.195976 0	1.81704e-06 -0.196195 0	1.62046e-06 -0.196194 0	1.41186e-06 -0.196194 0	1.20449e-06 -0.196193 0	
9.99017e-07 -0.196192 0	7.95718e-07 -0.196192 0	5.94558e-07 -0.196192 0	3.9524e-07 -0.196191 0	1.97266e-07 -0.196191 0	
-1.17399e-13 -0.196191 0	-1.97266e-07 -0.196191 0	-3.95239e-07 -0.196191 0	-5.94557e-07 -0.196192 0	-7.95718e-07 -0.196192 0	
-9.99017e-07 -0.196192 0	-1.20449e-06 -0.196193 0	-1.41186e-06 -0.196194 0	-1.62046e-06 -0.196194 0	-1.81704e-06 -0.196195 0	
-1.68544e-06 -0.195976 0	
3.13924e-06 -0.195976 0	3.32013e-06 -0.196194 0	2.98718e-06 -0.196194 0	2.62722e-06 -0.196193 0	2.2605e-06 -0.196192 0	
1.88896e-06 -0.196192 0	1.5141e-06 -0.196191 0	1.13706e-06 -0.196191 0	7.58664e-07 -0.196191 0	3.79503e-07 -0.196191 0	
3.91713e-13 -0.196191 0	-3.79503e-07 -0.196191 0	-7.58664e-07 -0.196191 0	-1.13706e-06 -0.196191 0	-1.5141e-06 -0.196191 0	
-1.88896e-06 -0.196192 0	-2.2605e-06 -0.196192 0	-2.62722e-06 -0.196193 0	-2.98718e-06 -0.196194 0	-3.32013e-06 -0.196194 0	
-3.13924e-06 -0.195976 0	
4.62348e-06 -0.195975 0	4.87199e-06 -0.196193 0	4.39251e-06 -0.196193 0	3.87146e-06 -0.196192 0	3.33746e-06 -0.196191 0	