# vtk DataFile Version 2.0
Titre
ASCII
DATASET STRUCTURED_POINTS
DIMENSIONS 21 101 1
ORIGIN 0.0 0.0 0.0
SPACING 0.005 0.01 0.0
POINT_DATA 2121 
VECTORS velocity float

-1.74235 3.51352 0	-2.51763 5.36783 0	-0.56839 3.25516 0	-0.639604 3.72464 0	0.0380482 3.07894 0	
0.193875 3.01991 0	0.468818 2.80823 0	0.621054 2.70711 0	0.76941 2.6305 0	0.889181 2.58508 0	
1.00277 2.57154 0	1.11485 2.58526 0	1.23513 2.62892 0	1.3724 2.70473 0	1.53745 2.81841 0	
1.74318 2.9787 0	2.00481 3.19962 0	2.33772 3.50386 0	2.75637 3.93012 0	2.94097 4.52675 0	
11.4131 7.38157 0	
-8.78657 4.04552 0	-4.21043 0.997389 0	-4.65639 3.12947 0	-3.0612 2.61077 0	-2.45181 2.5723 0	
-1.76393 2.37016 0	-1.26292 2.18349 0	-0.827923 2.0264 0	-0.446623 1.90532 0	-0.092344 1.82969 0	
0.254129 1.80362 0	0.608977 1.82832 0	0.987505 1.90359 0	1.40572 2.02739 0	1.88215 2.19538 0	
2.44077 2.40009 0	3.11542 2.62741 0	3.95974 2.84759 0	5.07096 2.9897 0	7.12974 2.89598 0	
-4.32194 -1.09401 0	
-5.95742 -3.20431 0	-4.86271 -1.59714 0	-4.12852 -0.728427 0	-3.43583 -0.0962928 0	-2.78561 0.295309 0	
-2.23871 0.532756 0	-1.73375 0.681335 0	-1.28197 0.76646 0	-0.86718 0.814499 0	-0.477534 0.838955 0	
-0.0997028 0.847948 0	0.27976 0.844519 0	0.67414 0.826967 0	1.09655 0.788527 0	1.55948 0.716371 0	
2.07386 0.589345 0	2.64773 0.37486 0	3.28552 0.0242771 0	3.99559 -0.537714 0	4.80865 -1.38473 0	
6.06516 -2.76526 0	
-1.46891 -4.78079 0	-1.90879 -3.47968 0	-2.05096 -2.42917 0	-1.95228 -1.64686 0	-1.74311 -1.06884 0	
-1.48494 -0.647937 0	-1.21167 -0.349543 0	-0.925782 -0.143254 0	-0.636758 -0.00846609 0	-0.348175 0.0682782 0	
-0.0598692 0.0947799 0	0.230227 0.0740254 0	0.524638 0.00387928 0	0.824831 -0.122659 0	1.12957 -0.318227 0	
1.43244 -0.602483 0	1.71546 -1.00523 0	1.95196 -1.56223 0	2.09099 -2.32605 0	2.0061 -3.37341 0	
1.63585 -4.71427 0	
0.558891 -3.58907 0	-0.0876182 -3.05303 0	-0.514843 -2.48883 0	-0.713653 -1.98387 0	-0.770338 -1.55991 0	
-0.733326 -1.21912 0	-0.636982 -0.954841 0	-0.503965 -0.758739 0	-0.348926 -0.623892 0	-0.181605 -0.544444 0	
-0.0087001 -0.516696 0	0.164598 -0.539224 0	0.333212 -0.613256 0	0.490766 -0.742376 0	0.627967 -0.932487 0	
0.730922 -1.1908 0	0.777826 -1.52634 0	0.734958 -1.94738 0	0.553448 -2.45516 0	0.144117 -3.03253 0	
-0.488596 -3.59447 0	
1.18218 -2.37575 0	0.676451 -2.25978 0	0.276182 -2.01735 0	0.0221054 -1.76048 0	-0.131381 -1.51483 0	
-0.206459 -1.29746 0	-0.223898 -1.1166 0	-0.200457 -0.975446 0	-0.149389 -0.874655 0	-0.0813003 -0.813849 0	
-0.00495274 -0.792508 0	0.0718407 -0.81041 0	0.141305 -0.86784 0	0.194774 -0.965443 0	0.221762 -1.10383 0	
0.209098 -1.28274 0	0.139985 -1.49956 0	-0.00669011 -1.74692 0	-0.254064 -2.00886 0	-0.649188 -2.26026 0	
-1.15456 -2.39105 0	
1.13966 -1.39912 0	0.910158 -1.58955 0	0.591839 -1.5099 0	0.371422 -1.41052 0	0.210431 -1.29706 0	
0.10098 -1.18432 0	0.033261 -1.08259 0	-0.00236622 -0.99846 0	-0.0148409 -0.935913 0	-0.0123168 -0.897227 0	
-0.00231163 -0.883549 0	0.00801099 -0.895271 0	0.0114878 -0.932133 0	0.000594774 -0.99314 0	-0.0328554 -1.07622 0	
-0.0978964 -1.17761 0	-0.204368 -1.29104 0	-0.362446 -1.40648 0	-0.580557 -1.50937 0	-0.897067 -1.59348 0	
-1.13237 -1.41257 0	
0.965005 -0.84592 0	0.898119 -1.10041 0	0.66189 -1.10386 0	0.4901 -1.0858 0	0.353389 -1.05188 0	
0.246143 -1.00829 0	0.164785 -0.96325 0	0.104601 -0.922747 0	0.0604438 -0.89098 0	0.0270316 -0.870687 0	
-0.000922931 -0.863414 0	-0.0286887 -0.869697 0	-0.0615445 -0.889111 0	-0.10481 -0.920221 0	-0.16383 -0.960412 0	
-0.243857 -1.00561 0	-0.349765 -1.04992 0	-0.485363 -1.08522 0	-0.656411 -1.10519 0	-0.892627 -1.10437 0	
-0.962546 -0.852765 0	
0.787116 -0.541395 0	0.7796 -0.765757 0	0.614852 -0.807483 0	0.488885 -0.828472 0	0.382579 -0.836361 0	
0.291088 -0.832442 0	0.213778 -0.822093 0	0.148774 -0.809696 0	0.0934778 -0.798519 0	0.0448765 -0.790828 0	
-0.000273737 -0.787961 0	-0.0453242 -0.790382 0	-0.0936356 -0.797697 0	-0.148481 -0.808639 0	-0.212922 -0.821005 0	
-0.289631 -0.831579 0	-0.380583 -0.836011 0	-0.486526 -0.828923 0	-0.612378 -0.808941 0	-0.777432 -0.76849 0	
-0.786421 -0.54499 0	
0.627533 -0.367948 0	0.634562 -0.548471 0	0.522169 -0.601117 0	0.433589 -0.637836 0	0.354478 -0.664472 0	
0.281546 -0.680335 0	0.215301 -0.688578 0	0.155299 -0.692025 0	0.10045 -0.692872 0	0.0492627 -0.692703 0	
-7.46181e-06 -0.692478 0	-0.0492299 -0.692532 0	-0.10028 -0.692569 0	-0.154923 -0.691667 0	-0.21468 -0.688273 0	
-0.280684 -0.680211 0	-0.353432 -0.664662 0	-0.432471 -0.638457 0	-0.521124 -0.602236 0	-0.633802 -0.550164 0	
-0.627471 -0.36988 0	
0.490681 -0.267556 0	0.496021 -0.4111 0	0.420304 -0.461527 0	0.359769 -0.501393 0	0.302483 -0.533941 0	
0.246637 -0.557621 0	0.193116 -0.574146 0	0.142113 -0.585178 0	0.0933548 -0.592052 0	0.0462685 -0.595757 0	
7.88039e-05 -0.596905 0	-0.0460905 -0.59571 0	-0.0931195 -0.591979 0	-0.141794 -0.585118 0	-0.192705 -0.57415 0	
-0.246148 -0.557747 0	-0.301955 -0.534246 0	-0.359267 -0.501918 0	-0.419906 -0.462286 0	-0.495826 -0.412106 0	
-0.490819 -0.268617 0	
0.376041 -0.211801 0	0.375986 -0.325642 0	0.325898 -0.368836 0	0.285461 -0.405895 0	0.244822 -0.437757 0	
0.203263 -0.462669 0	0.161701 -0.481487 0	0.120564 -0.495106 0	0.0799847 -0.504263 0	0.0398953 -0.509521 0	
8.96862e-05 -0.511234 0	-0.0397086 -0.509524 0	-0.0797782 -0.504279 0	-0.120331 -0.495152 0	-0.161443 -0.481585 0	
-0.202993 -0.462844 0	-0.244564 -0.438029 0	-0.28525 -0.406275 0	-0.325773 -0.36932 0	-0.375995 -0.326223 0	
-0.376214 -0.212376 0	
0.282086 -0.183481 0	0.27745 -0.273836 0	0.24529 -0.308477 0	0.218893 -0.340306 0	0.190608 -0.368486 0	
0.160415 -0.391367 0	0.129114 -0.409328 0	0.0971822 -0.422792 0	0.0649253 -0.43212 0	0.0325244 -0.437598 0	
7.45603e-05 -0.439409 0	-0.0323736 -0.437616 0	-0.0647707 -0.43216 0	-0.0970241 -0.422861 0	-0.128956 -0.409435 0	
-0.160268 -0.39152 0	-0.190486 -0.36869 0	-0.218813 -0.340561 0	-0.245273 -0.308776 0	-0.277516 -0.274168 0	
-0.282237 -0.183793 0	
0.206773 -0.172015 0	0.199528 -0.243629 0	0.179755 -0.270162 0	0.163001 -0.296185 0	0.14374 -0.319658 0	
0.122312 -0.339171 0	0.0993667 -0.354845 0	0.0753488 -0.366833 0	0.0506112 -0.375276 0	0.0254358 -0.380293 0	
5.44516e-05 -0.381962 0	-0.0253274 -0.380312 0	-0.0505047 -0.375316 0	-0.0752467 -0.366895 0	-0.0992733 -0.354932 0	
-0.122234 -0.339285 0	-0.143685 -0.319798 0	-0.162978 -0.296349 0	-0.179773 -0.270342 0	-0.199598 -0.243816 0	
-0.206888 -0.172183 0	
0.147732 -0.170683 0	0.139698 -0.227178 0	0.12829 -0.246755 0	0.118062 -0.267289 0	0.105301 -0.286047 0	
0.0904791 -0.3019 0	0.074098 -0.314834 0	0.0565425 -0.324858 0	0.0381509 -0.331992 0	0.0192244 -0.336262 0	
3.69672e-05 -0.337688 0	-0.0191515 -0.336278 0	-0.0380813 -0.332023 0	-0.0564789 -0.324905 0	-0.0740436 -0.314897 0	
-0.090438 -0.301978 0	-0.105277 -0.286138 0	-0.11806 -0.26739 0	-0.128315 -0.246861 0	-0.139753 -0.227282 0	
-0.147812 -0.170771 0	
0.102477 -0.175114 0	0.0948996 -0.219341 0	0.0889737 -0.233307 0	0.0830942 -0.249052 0	0.0749478 -0.263569 0	
0.0650027 -0.275994 0	0.053637 -0.286249 0	0.0411675 -0.294273 0	0.0278913 -0.300027 0	0.0140879 -0.303488 0	
2.39193e-05 -0.304647 0	-0.0140411 -0.3035 0	-0.0278475 -0.300049 0	-0.0411289 -0.294306 0	-0.0536058 -0.286291 0	
-0.0649815 -0.276045 0	-0.0749389 -0.263627 0	-0.0830998 -0.249113 0	-0.0889956 -0.233369 0	-0.0949394 -0.219399 0	
-0.10253 -0.17516 0	
0.0685766 -0.18248 0	0.0621233 -0.216759 0	0.0596576 -0.226394 0	0.0566225 -0.238164 0	0.0516955 -0.249097 0	
0.0452789 -0.258553 0	0.0376526 -0.26643 0	0.0290692 -0.272641 0	0.0197755 -0.27712 0	0.0100121 -0.279825 0	
1.49441e-05 -0.280731 0	-0.00998299 -0.279832 0	-0.0197486 -0.277134 0	-0.0290463 -0.272662 0	-0.0376351 -0.266457 0	
-0.0452681 -0.258585 0	-0.0516929 -0.249132 0	-0.0566291 -0.2382 0	-0.059674 -0.22643 0	-0.0621499 -0.216791 0	
-0.0686111 -0.182503 0	
0.0437818 -0.190983 0	0.0386834 -0.21725 0	0.0382983 -0.223656 0	0.0370776 -0.232241 0	0.0343495 -0.24027 0	
0.030432 -0.24728 0	0.02553 -0.253168 0	0.0198393 -0.257839 0	0.0135574 -0.261224 0	0.00688172 -0.263275 0	
9.08288e-06 -0.263963 0	-0.0068641 -0.263279 0	-0.0135414 -0.261233 0	-0.0198259 -0.257852 0	-0.0255203 -0.253185 0	
-0.0304267 -0.2473 0	-0.0343494 -0.240292 0	-0.0370831 -0.232263 0	-0.0383096 -0.223676 0	-0.0387005 -0.217267 0	
-0.0438034 -0.190994 0	
0.0261042 -0.19953 0	0.0223212 -0.219411 0	0.0231029 -0.223481 0	0.0229979 -0.229587 0	0.0217315 -0.235337 0	
0.0195423 -0.240404 0	0.0165783 -0.244691 0	0.0129878 -0.248113 0	0.00892449 -0.250603 0	0.00454439 -0.252116 0	
5.3942e-06 -0.252625 0	-0.00453396 -0.252119 0	-0.00891512 -0.250609 0	-0.0129802 -0.248121 0	-0.0165729 -0.244701 0	
-0.0195398 -0.240416 0	-0.0217322 -0.23535 0	-0.023002 -0.229599 0	-0.0231103 -0.223492 0	-0.0223319 -0.21942 0	
-0.0261175 -0.199536 0	
0.0138565 -0.207502 0	0.0112111 -0.222358 0	0.0125741 -0.224784 0	0.0131163 -0.229006 0	0.0127872 -0.233015 0	
0.0117593 -0.236581 0	0.0101382 -0.239621 0	0.00803399 -0.242062 0	0.00556289 -0.243847 0	0.00284506 -0.244934 0	
3.13815e-06 -0.245299 0	-0.00283901 -0.244936 0	-0.00555752 -0.24385 0	-0.00802971 -0.242067 0	-0.0101354 -0.239628 0	
-0.0117582 -0.236588 0	-0.012788 -0.233022 0	-0.0131191 -0.229013 0	-0.0125788 -0.22479 0	-0.0112176 -0.222362 0	
-0.0138645 -0.207504 0	
0.00565474 -0.214589 0	0.0039203 -0.225547 0	0.00550359 -0.22685 0	0.00638412 -0.229672 0	0.00662589 -0.232381 0	
0.00635028 -0.234817 0	0.00563128 -0.236911 0	0.004549 -0.238603 0	0.00318945 -0.239846 0	0.00164277 -0.240605 0	
1.79047e-06 -0.240861 0	-0.00163933 -0.240606 0	-0.00318642 -0.239848 0	-0.00454664 -0.238606 0	-0.0056298 -0.236915 0	
-0.00634984 -0.234821 0	-0.00662658 -0.232385 0	-0.00638596 -0.229676 0	-0.00550651 -0.226853 0	-0.00392419 -0.225549 0	
-0.00565946 -0.21459 0	
0.00039743 -0.220682 0	-0.000649065 -0.228659 0	0.000942529 -0.229219 0	0.00196277 -0.231025 0	0.00252474 -0.232785 0	
0.00271197 -0.234389 0	0.00257541 -0.235782 0	0.002172 -0.236916 0	0.00156399 -0.237753 0	0.000817462 -0.238267 0	
1.00188e-06 -0.23844 0	-0.000815543 -0.238267 0	-0.00156232 -0.237754 0	-0.00217073 -0.236918 0	-0.00257466 -0.235784 0	
-0.00271183 -0.234391 0	-0.00252525 -0.232788 0	-0.00196394 -0.231028 0	-0.0009443 -0.229221 0	0.00064678 -0.22866 0	
-0.000400178 -0.220682 0	
-0.00276927 -0.22579 0	-0.00332184 -0.231522 0	-0.00183757 -0.231611 0	-0.000800764 -0.232696 0	-8.55528e-05 -0.233779 0	
0.000364485 -0.234784 0	0.000583535 -0.235669 0	0.000611119 -0.236396 0	0.000491244 -0.236937 0	0.00027122 -0.237271 0	
5.49193e-07 -0.237383 0	-0.000270172 -0.237271 0	-0.000490343 -0.236938 0	-0.000610451 -0.236397 0	-0.00058317 -0.23567 0	
-0.000364473 -0.234785 0	8.51911e-05 -0.23378 0	0.000800036 -0.232697 0	0.00183652 -0.231612 0	0.00332051 -0.231523 0	
0.00276769 -0.22579 0	
-0.00449138 -0.229988 0	-0.00470629 -0.234054 0	-0.00338455 -0.23386 0	-0.00240327 -0.234447 0	-0.00164218 -0.235059 0	
-0.00106393 -0.235644 0	-0.000646291 -0.23617 0	-0.000362626 -0.236609 0	-0.00018263 -0.236938 0	-7.32731e-05 -0.237143 0	
2.94166e-07 -0.237212 0	7.38325e-05 -0.237143 0	0.000183105 -0.236939 0	0.000362966 -0.236609 0	0.000646457 -0.23617 0	
0.00106389 -0.235645 0	0.00164194 -0.23506 0	0.00240283 -0.234448 0	0.00338393 -0.233861 0	0.00470553 -0.234055 0	
0.00449049 -0.229988 0	
-0.00524675 -0.233382 0	-0.00524303 -0.236232 0	-0.00410244 -0.235884 0	-0.00321485 -0.236137 0	-0.00247363 -0.236431 0	
-0.0018546 -0.236729 0	-0.00134397 -0.237008 0	-0.000924415 -0.237247 0	-0.000575717 -0.237429 0	-0.000275479 -0.237544 0	
1.53265e-07 -0.237583 0	0.000275769 -0.237544 0	0.000575959 -0.23743 0	0.00092458 -0.237247 0	0.00134404 -0.237008 0	
0.00185456 -0.236729 0	0.00247347 -0.236431 0	0.00321458 -0.236138 0	0.00410208 -0.235884 0	0.0052426 -0.236232 0	
0.00524625 -0.233382 0	
-0.00538095 -0.23609 0	-0.00524533 -0.238065 0	-0.00428342 -0.237649 0	-0.0035057 -0.237687 0	-0.00282161 -0.237773 0	
-0.00221596 -0.237882 0	-0.00168075 -0.237996 0	-0.00120529 -0.238101 0	-0.000776615 -0.238185 0	-0.000380087 -0.238238 0	
7.70659e-08 -0.238257 0	0.000380232 -0.238238 0	0.000776733 -0.238185 0	0.00120537 -0.238101 0	0.00168078 -0.237996 0	
0.00221592 -0.237882 0	0.00282151 -0.237773 0	0.00350554 -0.237688 0	0.00428321 -0.237649 0	0.0052451 -0.238065 0	
0.00538068 -0.23609 0	
-0.00513824 -0.238225 0	-0.00493139 -0.239582 0	-0.0041344 -0.239151 0	-0.00346902 -0.23906 0	-0.00286036 -0.239017 0	
-0.00229923 -0.239006 0	-0.00178156 -0.239015 0	-0.00130122 -0.239033 0	-0.000850391 -0.239053 0	-0.000419966 -0.239067 0	
3.68724e-08 -0.239072 0	0.000420034 -0.239067 0	0.000850445 -0.239053 0	0.00130125 -0.239033 0	0.00178156 -0.239015 0	
0.0022992 -0.239006 0	0.0028603 -0.239017 0	0.00346893 -0.23906 0	0.00413428 -0.239151 0	0.00493126 -0.239582 0	
0.00513809 -0.238225 0	
-0.00468687 -0.239889 0	-0.00444954 -0.240819 0	-0.00379855 -0.240406 0	-0.00323992 -0.240243 0	-0.00271273 -0.240126 0	
-0.00221177 -0.240045 0	-0.00173553 -0.239991 0	-0.00128097 -0.239957 0	-0.000843807 -0.239937 0	-0.000418779 -0.239926 0	
1.63194e-08 -0.239923 0	0.000418808 -0.239926 0	0.000843829 -0.239937 0	0.00128098 -0.239957 0	0.00173552 -0.239991 0	
0.00221175 -0.240045 0	0.00271269 -0.240126 0	0.00323987 -0.240243 0	0.00379848 -0.240406 0	0.00444948 -0.240819 0	
0.00468679 -0.239889 0	
-0.00413932 -0.241175 0	-0.00389766 -0.241817 0	-0.00337223 -0.24144 0	-0.00291041 -0.241244 0	-0.00246321 -0.24109 0	
-0.00202799 -0.240972 0	-0.00160483 -0.240883 0	-0.00119272 -0.24082 0	-0.000789712 -0.240777 0	-0.000393175 -0.240753 0	
6.23763e-09 -0.240745 0	0.000393186 -0.240753 0	0.000789719 -0.240777 0	0.00119272 -0.24082 0	0.00160483 -0.240883 0	
0.00202798 -0.240972 0	0.00246319 -0.24109 0	0.00291038 -0.241244 0	0.00337219 -0.24144 0	0.00389762 -0.241817 0	
0.00413928 -0.241175 0	
-0.00356802 -0.24216 0	-0.00333776 -0.242612 0	-0.00291802 -0.242279 0	-0.00254121 -0.242075 0	-0.00216822 -0.241909 0	
-0.00179802 -0.241776 0	-0.00143164 -0.241672 0	-0.0010693 -0.241595 0	-0.000710581 -0.241542 0	-0.00035457 -0.241511 0	
1.58904e-09 -0.241501 0	0.000354573 -0.241511 0	0.000710581 -0.241542 0	0.00106929 -0.241595 0	0.00143163 -0.241672 0	
0.00179801 -0.241776 0	0.00216821 -0.241909 0	0.00254119 -0.242075 0	0.002918 -0.242279 0	0.00333774 -0.242612 0	
0.003568 -0.24216 0	
-0.00301715 -0.242905 0	-0.00280696 -0.243248 0	-0.00247467 -0.242954 0	-0.00217071 -0.242757 0	-0.00186399 -0.242594 0	
-0.00155444 -0.24246 0	-0.00124358 -0.242353 0	-0.000932371 -0.242273 0	-0.000621309 -0.242217 0	-0.000310549 -0.242183 0	
-3.41048e-10 -0.242172 0	0.000310547 -0.242183 0	0.000621307 -0.242217 0	0.000932368 -0.242273 0	0.00124358 -0.242353 0	
0.00155444 -0.24246 0	0.00186398 -0.242594 0	0.0021707 -0.242757 0	0.00247466 -0.242954 0	0.00280695 -0.243248 0	
0.00301714 -0.242905 0	
-0.00251141 -0.243445 0	-0.00232529 -0.243749 0	-0.00206441 -0.24349 0	-0.00182171 -0.24331 0	-0.00157254 -0.243158 0	
-0.0013174 -0.243031 0	-0.00105799 -0.24293 0	-0.000795635 -0.242852 0	-0.000531361 -0.242797 0	-0.000265946 -0.242764 0	
-9.76637e-10 -0.242754 0	0.000265944 -0.242764 0	0.000531359 -0.242797 0	0.000795632 -0.242852 0	0.00105798 -0.24293 0	
0.0013174 -0.243031 0	0.00157253 -0.243158 0	0.0018217 -0.24331 0	0.00206441 -0.24349 0	0.00232529 -0.243749 0	
0.00251141 -0.243445 0	
-0.00206281 -0.243842 0	-0.00190158 -0.244135 0	-0.00169837 -0.243913 0	-0.00150637 -0.243753 0	-0.00130614 -0.243617 0	
-0.00109844 -0.243502 0	-0.000884965 -0.243409 0	-0.000667196 -0.243338 0	-0.000446396 -0.243287 0	-0.000223667 -0.243257 0	
-1.04285e-09 -0.243247 0	0.000223665 -0.243257 0	0.000446394 -0.243287 0	0.000667194 -0.243338 0	0.000884962 -0.243409 0	
0.00109843 -0.243502 0	0.00130614 -0.243617 0	0.00150637 -0.243753 0	0.00169837 -0.243913 0	0.00190158 -0.244135 0	
0.00206281 -0.243842 0	
-0.00167491 -0.244139 0	-0.00153753 -0.24443 0	-0.00138042 -0.244243 0	-0.00122987 -0.244105 0	-0.00107054 -0.243986 0	
-0.00090329 -0.243885 0	-0.000729743 -0.243804 0	-0.000551358 -0.24374 0	-0.000369465 -0.243695 0	-0.000185294 -0.243668 0	
-8.95492e-10 -0.243659 0	0.000185292 -0.243668 0	0.000369463 -0.243695 0	0.000551356 -0.24374 0	0.000729742 -0.243804 0	
0.000903288 -0.243885 0	0.00107053 -0.243986 0	0.00122987 -0.244105 0	0.00138042 -0.244243 0	0.00153753 -0.24443 0	
0.00167491 -0.244139 0	
-0.00134606 -0.244361 0	-0.00123054 -0.244654 0	-0.00110997 -0.244498 0	-0.000992888 -0.244382 0	-0.000867249 -0.24428 0	
-0.000733916 -0.244194 0	-0.000594346 -0.244123 0	-0.000449908 -0.244068 0	-0.000301892 -0.244029 0	-0.000151528 -0.244006 0	
-6.94828e-10 -0.243998 0	0.000151527 -0.244006 0	0.000301891 -0.244029 0	0.000449906 -0.244068 0	0.000594344 -0.244123 0	
0.000733915 -0.244194 0	0.000867248 -0.24428 0	0.000992887 -0.244382 0	0.00110997 -0.244498 0	0.00123054 -0.244654 0	
0.00134606 -0.244361 0	
-0.00107171 -0.244525 0	-0.000975628 -0.244823 0	-0.000883762 -0.244695 0	-0.000793455 -0.244597 0	-0.000695236 -0.244512 0	
-0.000589916 -0.24444 0	-0.000478772 -0.24438 0	-0.000363036 -0.244334 0	-0.000243896 -0.2443 0	-0.000122507 -0.24428 0	
-5.08042e-10 -0.244273 0	0.000122506 -0.24428 0	0.000243895 -0.2443 0	0.000363035 -0.244334 0	0.000478771 -0.24438 0	
0.000589915 -0.24444 0	0.000695236 -0.244512 0	0.000793454 -0.244597 0	0.000883762 -0.244695 0	0.000975628 -0.244823 0	
0.00107171 -0.244525 0	
-0.000845901 -0.244645 0	-0.000766711 -0.244948 0	-0.000697236 -0.244845 0	-0.00062814 -0.244764 0	-0.000551996 -0.244694 0	
-0.000469528 -0.244634 0	-0.00038183 -0.244584 0	-0.000289978 -0.244546 0	-0.00019503 -0.244518 0	-9.80272e-05 -0.244501 0	
-3.57808e-10 -0.244495 0	9.80264e-05 -0.244501 0	0.000195029 -0.244518 0	0.000289977 -0.244546 0	0.000381829 -0.244584 0	
0.000469527 -0.244634 0	0.000551996 -0.244694 0	0.00062814 -0.244764 0	0.000697236 -0.244845 0	0.000766712 -0.244948 0	
0.000845902 -0.244645 0	
-0.0006622 -0.244732 0	-0.00059744 -0.245041 0	-0.0005453 -0.244958 0	-0.000492867 -0.244893 0	-0.000434322 -0.244835 0	
-0.00037029 -0.244786 0	-0.000301694 -0.244745 0	-0.000229452 -0.244713 0	-0.000154482 -0.24469 0	-7.76946e-05 -0.244676 0	
-2.4524e-10 -0.244672 0	7.76941e-05 -0.244676 0	0.000154481 -0.24469 0	0.000229452 -0.244713 0	0.000301693 -0.244745 0	
0.00037029 -0.244786 0	0.000434321 -0.244835 0	0.000492867 -0.244893 0	0.0005453 -0.244958 0	0.00059744 -0.245041 0	
0.0006622 -0.244732 0	
-0.000514289 -0.244794 0	-0.000461688 -0.245109 0	-0.000422874 -0.245042 0	-0.000383425 -0.24499 0	-0.000338783 -0.244944 0	
-0.00028948 -0.244904 0	-0.000236278 -0.244871 0	-0.000179949 -0.244845 0	-0.000121272 -0.244826 0	-6.1028e-05 -0.244815 0	
-1.64671e-10 -0.244811 0	6.10277e-05 -0.244815 0	0.000121272 -0.244826 0	0.000179949 -0.244845 0	0.000236277 -0.244871 0	
0.00028948 -0.244904 0	0.000338783 -0.244944 0	0.000383425 -0.24499 0	0.000422874 -0.245042 0	0.000461688 -0.245109 0	
0.000514289 -0.244794 0	
-0.000396304 -0.244837 0	-0.000353833 -0.245158 0	-0.000325192 -0.245105 0	-0.000295779 -0.245064 0	-0.00026203 -0.245027 0	
-0.000224384 -0.244995 0	-0.000183467 -0.244968 0	-0.000139916 -0.244947 0	-9.43827e-05 -0.244932 0	-4.75234e-05 -0.244923 0	
-1.09877e-10 -0.24492 0	4.75232e-05 -0.244923 0	9.43825e-05 -0.244932 0	0.000139916 -0.244947 0	0.000183466 -0.244968 0	
0.000224384 -0.244995 0	0.00026203 -0.245027 0	0.000295779 -0.245064 0	0.000325192 -0.245105 0	0.000353833 -0.245158 0	
0.000396304 -0.244837 0	
-0.000302998 -0.244868 0	-0.000268889 -0.245193 0	-0.000247957 -0.245152 0	-0.000226243 -0.245119 0	-0.000200957 -0.245089 0	
-0.00017246 -0.245064 0	-0.000141257 -0.245043 0	-0.00010787 -0.245026 0	-7.28338e-05 -0.245014 0	-3.66937e-05 -0.245007 0	
-7.21564e-11 -0.245005 0	3.66936e-05 -0.245007 0	7.28336e-05 -0.245014 0	0.00010787 -0.245026 0	0.000141257 -0.245043 0	
0.00017246 -0.245064 0	0.000200957 -0.245089 0	0.000226243 -0.245119 0	0.000247958 -0.245152 0	0.000268889 -0.245193 0	
0.000302998 -0.244868 0	
-0.000229808 -0.244888 0	-0.000202545 -0.245217 0	-0.000187414 -0.245185 0	-0.000171558 -0.245159 0	-0.000152796 -0.245137 0	
-0.000131419 -0.245117 0	-0.000107832 -0.2451 0	-8.24557e-05 -0.245087 0	-5.5727e-05 -0.245077 0	-2.80911e-05 -0.245071 0	
-4.62337e-11 -0.24507 0	2.8091e-05 -0.245071 0	5.57269e-05 -0.245077 0	8.24556e-05 -0.245087 0	0.000107831 -0.2451 0	
0.000131419 -0.245117 0	0.000152796 -0.245137 0	0.000171557 -0.245159 0	0.000187415 -0.245185 0	0.000202545 -0.245217 0	
0.000229808 -0.244888 0	
-0.000172842 -0.244902 0	-0.000151147 -0.245234 0	-0.000140348 -0.245209 0	-0.000128912 -0.245189 0	-0.000115139 -0.245171 0	
-9.92587e-05 -0.245156 0	-8.15924e-05 -0.245143 0	-6.24781e-05 -0.245133 0	-4.22666e-05 -0.245125 0	-2.13183e-05 -0.245121 0	
-2.97721e-11 -0.245119 0	2.13182e-05 -0.245121 0	4.22665e-05 -0.245125 0	6.24781e-05 -0.245133 0	8.15924e-05 -0.245143 0	
9.92586e-05 -0.245156 0	0.000115139 -0.245171 0	0.000128912 -0.245189 0	0.000140348 -0.245209 0	0.000151147 -0.245234 0	
0.000172842 -0.244902 0	
-0.000128841 -0.24491 0	-0.000111648 -0.245245 0	-0.000104056 -0.245226 0	-9.59287e-05 -0.245211 0	-8.59385e-05 -0.245197 0	
-7.4267e-05 -0.245185 0	-6.11669e-05 -0.245175 0	-4.69063e-05 -0.245167 0	-3.17648e-05 -0.245161 0	-1.60312e-05 -0.245158 0	
-1.76804e-11 -0.245156 0	1.60311e-05 -0.245158 0	3.17647e-05 -0.245161 0	4.69062e-05 -0.245167 0	6.11669e-05 -0.245175 0	
7.4267e-05 -0.245185 0	8.59385e-05 -0.245197 0	9.59287e-05 -0.245211 0	0.000104056 -0.245226 0	0.000111648 -0.245245 0	
0.000128842 -0.24491 0	
-9.51123e-05 -0.244916 0	-8.15402e-05 -0.245252 0	-7.6301e-05 -0.245238 0	-7.06261e-05 -0.245226 0	-6.34802e-05 -0.245216 0	
-5.50049e-05 -0.245206 0	-4.53974e-05 -0.245199 0	-3.48683e-05 -0.245193 0	-2.36387e-05 -0.245188 0	-1.19379e-05 -0.245185 0	
-1.17915e-11 -0.245184 0	1.19378e-05 -0.245185 0	2.36387e-05 -0.245188 0	3.48682e-05 -0.245193 0	4.53974e-05 -0.245199 0	
5.50049e-05 -0.245206 0	6.34802e-05 -0.245216 0	7.06261e-05 -0.245226 0	7.6301e-05 -0.245238 0	8.15402e-05 -0.245252 0	
9.51123e-05 -0.244916 0	
-6.94543e-05 -0.244918 0	-5.87823e-05 -0.245257 0	-5.52517e-05 -0.245246 0	-5.13764e-05 -0.245237 0	-4.63496e-05 -0.245229 0	
-4.02806e-05 -0.245222 0	-3.3322e-05 -0.245216 0	-2.56382e-05 -0.245211 0	-1.74023e-05 -0.245208 0	-8.79469e-06 -0.245206 0	
-7.03759e-12 -0.245205 0	8.79467e-06 -0.245206 0	1.74023e-05 -0.245208 0	2.56382e-05 -0.245211 0	3.3322e-05 -0.245216 0	
4.02806e-05 -0.245222 0	4.63496e-05 -0.245229 0	5.13764e-05 -0.245237 0	5.52517e-05 -0.245246 0	5.87823e-05 -0.245257 0	
6.94543e-05 -0.244918 0	
-5.00885e-05 -0.24492 0	-4.17308e-05 -0.245259 0	-3.94266e-05 -0.245251 0	-3.68563e-05 -0.245244 0	-3.33926e-05 -0.245238 0	
-2.91187e-05 -0.245233 0	-2.4152e-05 -0.245229 0	-1.86193e-05 -0.245225 0	-1.26555e-05 -0.245222 0	-6.4009e-06 -0.245221 0	
-4.05502e-12 -0.24522 0	6.40089e-06 -0.245221 0	1.26555e-05 -0.245222 0	1.86193e-05 -0.245225 0	2.4152e-05 -0.245229 0	
2.91187e-05 -0.245233 0	3.33926e-05 -0.245238 0	3.68563e-05 -0.245244 0	3.94266e-05 -0.245251 0	4.17308e-05 -0.245259 0	
5.00885e-05 -0.24492 0	
-3.55896e-05 -0.24492 0	-2.90734e-05 -0.24526 0	-2.76373e-05 -0.245254 0	-2.6001e-05 -0.245249 0	-2.36775e-05 -0.245245 0	
-2.07297e-05 -0.245241 0	-1.7247e-05 -0.245238 0	-1.33267e-05 -0.245235 0	-9.07247e-06 -0.245233 0	-4.59296e-06 -0.245232 0	
-2.44296e-12 -0.245231 0	4.59296e-06 -0.245232 0	9.07246e-06 -0.245233 0	1.33267e-05 -0.245235 0	1.7247e-05 -0.245238 0	
2.07297e-05 -0.245241 0	2.36775e-05 -0.245245 0	2.6001e-05 -0.245249 0	2.76373e-05 -0.245254 0	2.90734e-05 -0.24526 0	
3.55896e-05 -0.24492 0	
-2.4824e-05 -0.244919 0	-1.97706e-05 -0.24526 0	-1.89392e-05 -0.245256 0	-1.79606e-05 -0.245253 0	-1.64585e-05 -0.245249 0	
-1.44801e-05 -0.245246 0	-1.20925e-05 -0.245244 0	-9.36966e-06 -0.245242 0	-6.39078e-06 -0.24524 0	-3.23896e-06 -0.245239 0	
-1.82706e-12 -0.245239 0	3.23896e-06 -0.245239 0	6.39078e-06 -0.24524 0	9.36966e-06 -0.245242 0	1.20925e-05 -0.245244 0	
1.44801e-05 -0.245246 0	1.64586e-05 -0.245249 0	1.79606e-05 -0.245253 0	1.89392e-05 -0.245256 0	1.97706e-05 -0.24526 0	
2.4824e-05 -0.244919 0	
-1.68964e-05 -0.244919 0	-1.30046e-05 -0.24526 0	-1.25859e-05 -0.245257 0	-1.20618e-05 -0.245254 0	-1.11434e-05 -0.245252 0	
-9.86536e-06 -0.24525 0	-8.27782e-06 -0.245248 0	-6.43628e-06 -0.245247 0	-4.40046e-06 -0.245245 0	-2.23333e-06 -0.245245 0	
-7.64926e-13 -0.245245 0	2.23333e-06 -0.245245 0	4.40046e-06 -0.245245 0	6.43628e-06 -0.245247 0	8.27782e-06 -0.245248 0	
9.86536e-06 -0.24525 0	1.11434e-05 -0.245252 0	1.20618e-05 -0.245254 0	1.25859e-05 -0.245257 0	1.30046e-05 -0.24526 0	
1.68964e-05 -0.244919 0	
-1.1103e-05 -0.244918 0	-8.13542e-06 -0.24526 0	-7.9917e-06 -0.245257 0	-7.77451e-06 -0.245256 0	-7.26442e-06 -0.245254 0	
-6.48651e-06 -0.245252 0	-5.47765e-06 -0.245251 0	-4.27891e-06 -0.24525 0	-2.93474e-06 -0.245249 0	-1.49218e-06 -0.245248 0	
-6.89424e-13 -0.245248 0	1.49218e-06 -0.245248 0	2.93474e-06 -0.245249 0	4.2789e-06 -0.24525 0	5.47765e-06 -0.245251 0	
6.48651e-06 -0.245252 0	7.26442e-06 -0.245254 0	7.7745e-06 -0.245256 0	7.99169e-06 -0.245257 0	8.13541e-06 -0.24526 0	
1.11029e-05 -0.244918 0	
-6.89269e-06 -0.244917 0	-4.66405e-06 -0.245259 0	-4.69852e-06 -0.245257 0	-4.68293e-06 -0.245256 0	-4.45392e-06 -0.245255 0	
-4.02918e-06 -0.245254 0	-3.43526e-06 -0.245253 0	-2.70195e-06 -0.245252 0	-1.86175e-06 -0.245251 0	-9.49148e-07 -0.245251 0	
-7.54975e-13 -0.245251 0	9.49147e-07 -0.245251 0	1.86175e-06 -0.245251 0	2.70195e-06 -0.245252 0	3.43525e-06 -0.245253 0	
4.02918e-06 -0.245254 0	4.45392e-06 -0.245255 0	4.68293e-06 -0.245256 0	4.69852e-06 -0.245257 0	4.66405e-06 -0.245259 0	
6.89271e-06 -0.244917 0	
-3.83435e-06 -0.244916 0	-2.20207e-06 -0.245258 0	-2.34872e-06 -0.245257 0	-2.46166e-06 -0.245256 0	-2.42351e-06 -0.245255 0	
-2.24632e-06 -0.245254 0	-1.94858e-06 -0.245254 0	-1.55129e-06 -0.245253 0	-1.07751e-06 -0.245253 0	-5.51857e-07 -0.245252 0	
-5.53842e-13 -0.245252 0	5.51856e-07 -0.245252 0	1.07751e-06 -0.245253 0	1.55129e-06 -0.245253 0	1.94858e-06 -0.245254 0	
2.24632e-06 -0.245254 0	2.42351e-06 -0.245255 0	2.46166e-06 -0.245256 0	2.34872e-06 -0.245257 0	2.20207e-06 -0.245258 0	
3.83435e-06 -0.244916 0	
-1.58919e-06 -0.244915 0	-4.46162e-07 -0.245257 0	-6.62546e-07 -0.245257 0	-8.55519e-07 -0.245256 0	-9.46597e-07 -0.245255 0	
-9.43502e-07 -0.245255 0	-8.58395e-07 -0.245254 0	-7.05335e-07 -0.245254 0	-4.99926e-07 -0.245253 0	-2.58954e-07 -0.245253 0	
-9.44347e-13 -0.245253 0	2.58954e-07 -0.245253 0	4.99926e-07 -0.245253 0	7.05334e-07 -0.245254 0	8.58394e-07 -0.245254 0	
9.435e-07 -0.245255 0	9.46597e-07 -0.245255 0	8.55518e-07 -0.245256 0	6.62546e-07 -0.245257 0	4.46161e-07 -0.245257 0	
1.58919e-06 -0.244915 0	
1.10959e-07 -0.244914 0	8.41686e-07 -0.245256 0	5.8033e-07 -0.245256 0	3.36899e-07 -0.245255 0	1.55998e-07 -0.245255 0	
3.32595e-08 -0.245254 0	-3.84381e-08 -0.245254 0	-6.75868e-08 -0.245254 0	-6.38083e-08 -0.245253 0	-3.75889e-08 -0.245253 0	
4.29793e-14 -0.245253 0	3.75877e-08 -0.245253 0	6.38072e-08 -0.245253 0	6.75864e-08 -0.245254 0	3.84371e-08 -0.245254 0	
-3.32596e-08 -0.245254 0	-1.55999e-07 -0.245255 0	-3.36902e-07 -0.245255 0	-5.80333e-07 -0.245256 0	-8.41692e-07 -0.245256 0	
-1.10971e-07 -0.244914 0	
1.48086e-06 -0.244914 0	1.84914e-06 -0.245256 0	1.55604e-06 -0.245255 0	1.27698e-06 -0.245255 0	1.02808e-06 -0.245255 0	
8.07647e-07 -0.245254 0	6.12764e-07 -0.245254 0	4.39535e-07 -0.245254 0	2.8327e-07 -0.245253 0	1.38667e-07 -0.245253 0	
-1.9146e-13 -0.245253 0	-1.38668e-07 -0.245253 0	-2.83271e-07 -0.245253 0	-4.39535e-07 -0.245254 0	-6.12764e-07 -0.245254 0	
-8.07648e-07 -0.245254 0	-1.02808e-06 -0.245255 0	-1.27698e-06 -0.245255 0	-1.55604e-06 -0.245255 0	-1.84914e-06 -0.245256 0	
-1.48085e-06 -0.244914 0	
2.70055e-06 -0.244913 0	2.73232e-06 -0.245255 0	2.41051e-06 -0.245255 0	2.09805e-06 -0.245254 0	1.78819e-06 -0.245254 0	
1.48148e-06 -0.245254 0	1.17866e-06 -0.245253 0	8.79791e-07 -0.245253 0	5.84378e-07 -0.245253 0	2.91514e-07 -0.245253 0	
-1.19878e-13 -0.245253 0	-2.91514e-07 -0.245253 0	-5.84378e-07 -0.245253 0	-8.79791e-07 -0.245253 0	-1.17866e-06 -0.245253 0	
-1.48148e-06 -0.245254 0	-1.78819e-06 -0.245254 0	-2.09805e-06 -0.245254 0	-2.41051e-06 -0.245255 0	-2.73232e-06 -0.245255 0	
-2.70055e-06 -0.244913 0	
3.92565e-06 -0.244912 0	3.63581e-06 -0.245254 0	3.26961e-06 -0.245254 0	2.91435e-06 -0.245254 0	2.53741e-06 -0.245253 0	
2.1413e-06 -0.245253 0	1.73002e-06 -0.245253 0	1.30715e-06 -0.245252 0	8.75923e-07 -0.245252 0	4.39289e-07 -0.245252 0	
5.49125e-14 -0.245252 0	-4.39289e-07 -0.245252 0	-8.75923e-07 -0.245252 0	-1.30715e-06 -0.245252 0	-1.73002e-06 -0.245253 0	
-2.1413e-06 -0.245253 0	-2.53741e-06 -0.245253 0	-2.91435e-06 -0.245254 0	-3.26961e-06 -0.245254 0	-3.63581e-06 -0.245254 0	
-3.92567e-06 -0.244912 0	
5.29422e-06 -0.244911 0	4.68456e-06 -0.245254 0	4.24517e-06 -0.245253 0	3.82708e-06 -0.245253 0	3.36505e-06 -0.245252 0	
2.8633e-06 -0.245252 0	2.32895e-06 -0.245252 0	1.76888e-06 -0.245251 0	1.18974e-06 -0.245251 0	5.98005e-07 -0.245251 0	
2.95098e-13 -0.245251 0	-5.98005e-07 -0.245251 0	-1.18974e-06 -0.245251 0	-1.76888e-06 -0.245251 0	-2.32895e-06 -0.245252 0	
-2.8633e-06 -0.245252 0	-3.36505e-06 -0.245252 0	-3.82708e-06 -0.245253 0	-4.24516e-06 -0.245253 0	-4.68456e-06 -0.245254 0	
-5.29422e-06 -0.244911 0	
6.93891e-06 -0.24491 0	5.98961e-06 -0.245253 0	5.4416e-06 -0.245253 0	4.9301e-06 -0.245252 0	4.35338e-06 -0.245251 0	
3.71729e-06 -0.245251 0	3.0321e-06 -0.24525 0	2.30791e-06 -0.24525 0	1.55467e-06 -0.24525 0	7.82138e-07 -0.24525 0	
9.0133e-13 -0.24525 0	-7.82138e-07 -0.24525 0	-1.55467e-06 -0.24525 0	-2.30791e-06 -0.24525 0	-3.0321e-06 -0.24525 0	
-3.71729e-06 -0.245251 0	-4.35338e-06 -0.245251 0	-4.9301e-06 -0.245252 0	-5.44159e-06 -0.245253 0	-5.9896e-06 -0.245253 0	
-6.9389e-06 -0.24491 0	
8.99275e-06 -0.244909 0	7.66741e-06 -0.245253 0	6.96182e-06 -0.245252 0	6.31454e-06 -0.245251 0	5.58132e-06 -0.24525 0	
4.76955e-06 -0.245249 0	3.89278e-06 -0.245249 0	2.9644e-06 -0.245248 0	1.99753e-06 -0.245248 0	1.00513e-06 -0.245248 0	
9.29283e-13 -0.245248 0	-1.00513e-06 -0.245248 0	-1.99753e-06 -0.245248 0	-2.9644e-06 -0.245248 0	-3.89278e-06 -0.245249 0	