# vtk DataFile Version 2.0
Titre
ASCII
DATASET STRUCTURED_POINTS
DIMENSIONS 21 101 1
ORIGIN 0.0 0.0 0.0
SPACING 0.005 0.01 0.0
POINT_DATA 2121 
VECTORS velocity float

-nan -nan 0	-nan -nan 0	-nan -nan 0	-nan -nan 0	-nan -nan 0	
-nan -nan 0	-nan -nan 0	-nan -nan 0	inf -inf 0	-5.70776e+254 6.69714e+254 0	
2.13629e+199 -2.50659e+199 0	-1.31513e+147 1.5431e+147 0	4.06777e+158 1.21814e+158 0	1.38414e+293 4.14499e+292 0	-nan -nan 0	
-nan -nan 0	-nan -nan 0	-nan -nan 0	-nan -nan 0	-nan -nan 0	
-nan -nan 0	
-nan -nan 0	-nan -nan 0	-nan -nan 0	-nan -nan 0	-nan -nan 0	
-nan -nan 0	-nan -nan 0	-nan -nan 0	-nan -nan 0	inf -inf 0	
-3.34515e+231 3.925e+231 0	3.69939e+201 -4.34065e+201 0	5.53658e+293 1.658e+293 0	-nan -nan 0	-nan -nan 0	
-nan -nan 0	-nan -nan 0	-nan -nan 0	-nan -nan 0	-nan -nan 0	
-nan -nan 0	
-nan -nan 0	-nan -nan 0	-nan -nan 0	-nan -nan 0	-nan -nan 0	
-nan -nan 0	-nan -nan 0	-nan -nan 0	-nan -nan 0	-inf inf 0	
1.42698e+232 -1.67433e+232 0	-6.59013e+201 7.73246e+201 0	-9.61462e+173 -2.87922e+173 0	-inf -inf 0	-nan -nan 0	
-nan -nan 0	-nan -nan 0	-nan -nan 0	-nan -nan 0	-nan -nan 0	
-nan -nan 0	
-nan -nan 0	-nan -nan 0	-nan -nan 0	-nan -nan 0	-nan -nan 0	
-nan -nan 0	-nan -nan 0	-3.70319e+295 4.3451e+295 0	3.41478e+218 -4.0067e+218 0	-1.45379e+188 1.70579e+188 0	
6.89951e+128 -8.09546e+128 0	3.1843e+116 -1.98469e+116 0	8.40941e+116 -2.07984e+117 0	-2.20977e+173 -6.61743e+172 0	3.35775e+255 1.00552e+255 0	
-nan -nan 0	-nan -nan 0	-nan -nan 0	-nan -nan 0	-nan -nan 0	
-nan -nan 0	
-nan -nan 0	-nan -nan 0	-nan -nan 0	-nan -nan 0	-nan -nan 0	
-7.07398e+305 8.30018e+305 0	2.6924e+273 -3.15909e+273 0	-2.37551e+197 2.78728e+197 0	8.26329e+157 -9.69565e+157 0	1.06912e+114 -5.89124e+113 0	
1.4318e+114 -4.2261e+114 0	-4.38067e+114 -1.21593e+115 0	-2.46039e+115 -4.54412e+114 0	-1.1747e+115 5.07228e+115 0	-1.89624e+217 -5.67853e+216 0	
-nan -nan 0	-nan -nan 0	-nan -nan 0	-nan -nan 0	-nan -nan 0	
-nan -nan 0	
-nan -nan 0	-nan -nan 0	-nan -nan 0	-nan -nan 0	-nan -nan 0	
2.4734e+273 -2.90214e+273 0	-8.67754e+272 1.01817e+273 0	7.29451e+157 -8.55894e+157 0	-1.31677e+157 1.54502e+157 0	1.32548e+111 -8.27576e+112 0	
-1.22578e+113 -7.15345e+112 0	-1.89665e+113 1.49429e+113 0	1.09196e+113 3.8232e+113 0	2.39268e+113 -7.16507e+112 0	-6.75877e+230 -2.024e+230 0	
-nan -nan 0	-nan -nan 0	-nan -nan 0	-nan -nan 0	-nan -nan 0	
-nan -nan 0	
-nan -nan 0	-5.66218e+279 6.64366e+279 0	-nan -nan 0	1.81589e+260 -2.13066e+260 0	-3.6747e+260 4.31167e+260 0	
1.4235e+145 -1.67025e+145 0	-4.57375e+144 5.36656e+144 0	-5.49668e+111 -4.53323e+111 0	3.04456e+111 6.09348e+110 0	-5.13964e+111 -1.03122e+111 0	
-2.07902e+111 5.15399e+111 0	3.67809e+111 6.44494e+111 0	3.73437e+111 -2.26337e+111 0	-4.64232e+113 -2.93188e+112 0	1.72124e+115 -5.99123e+113 0	
5.16698e+216 1.54732e+216 0	-3.18928e+218 -9.5507e+217 0	-nan -nan 0	-1.33542e+270 -3.99907e+269 0	-nan -nan 0	
4.84381e+254 1.45054e+254 0	
-9.40628e+245 1.10368e+246 0	-2.59696e+158 3.04712e+158 0	-6.58146e+247 7.72229e+247 0	8.47094e+131 -9.93928e+131 0	-1.07437e+132 1.2606e+132 0	
-5.9069e+110 -8.41612e+109 0	1.06356e+111 -3.78665e+109 0	-1.16362e+111 4.57007e+109 0	5.64292e+110 -8.45022e+109 0	-3.07733e+110 2.83271e+110 0	
2.10137e+110 1.89076e+110 0	1.5022e+110 -7.49126e+109 0	-3.63055e+109 -5.26022e+109 0	-9.41151e+112 3.36694e+111 0	5.53694e+113 -9.32923e+112 0	
-8.42583e+113 4.74214e+113 0	-1.69875e+112 -1.04921e+114 0	5.4252e+203 1.62464e+203 0	-4.91207e+134 -1.47098e+134 0	6.05477e+253 1.81317e+253 0	
2.66909e+119 7.99292e+118 0	
-2.04356e+117 2.39779e+117 0	1.58608e+107 1.97521e+106 0	-1.42985e+119 1.6777e+119 0	6.71065e+108 2.64107e+108 0	8.83639e+108 -3.32379e+109 0	
-5.39477e+109 7.21412e+109 0	9.05408e+109 -1.17389e+110 0	-9.34569e+109 1.10628e+110 0	4.55704e+109 -4.95102e+109 0	-5.55511e+108 3.10956e+109 0	
1.17775e+109 -6.48082e+108 0	-1.54073e+108 -6.5073e+108 0	2.76201e+110 -6.20854e+109 0	-6.41621e+111 1.51516e+111 0	2.20707e+112 -8.0219e+111 0	
-1.65314e+112 2.36092e+112 0	-3.64189e+112 -4.00402e+112 0	5.77158e+112 1.41864e+112 0	-3.65801e+112 -1.16321e+111 0	2.22424e+118 6.66077e+117 0	
-4.03709e+108 -1.11904e+108 0	
-1.9131e+104 2.30908e+103 0	5.2598e+106 5.2206e+105 0	-2.87915e+107 -1.02085e+107 0	5.49417e+107 4.31309e+107 0	-2.72081e+107 -3.90856e+108 0	
-1.11025e+108 9.64517e+108 0	1.18173e+108 -1.43684e+109 0	-1.45621e+108 1.33646e+109 0	1.23661e+108 -5.65483e+108 0	5.47924e+107 1.72134e+108 0	
7.55839e+106 -8.23595e+107 0	-1.557e+107 -7.72578e+106 0	2.22407e+109 -8.17065e+108 0	-2.12218e+110 8.35626e+109 0	3.37402e+110 -2.14703e+110 0	
1.042e+111 4.63693e+110 0	-4.15405e+111 -7.57279e+110 0	4.43744e+111 2.80511e+110 0	-2.04432e+111 7.61008e+109 0	2.09859e+110 -2.03471e+109 0	
-4.37613e+107 -1.10124e+107 0	
-6.33487e+103 1.53951e+103 0	-5.31049e+105 -9.54001e+104 0	1.59953e+107 -1.35754e+106 0	-6.32058e+107 -1.99319e+106 0	8.59144e+107 2.2632e+106 0	
-5.09125e+107 1.68429e+107 0	2.22716e+106 -4.08015e+107 0	1.39791e+107 5.63976e+107 0	-5.35668e+105 -2.70403e+107 0	3.7784e+106 3.26231e+106 0	
-2.21455e+106 -3.66209e+106 0	-1.21074e+105 9.3254e+104 0	4.60531e+107 -1.92338e+107 0	-2.397e+108 1.68981e+108 0	-1.30644e+109 7.15539e+107 0	
1.13637e+110 -9.05865e+107 0	-2.85748e+110 -1.0822e+109 0	3.08709e+110 3.85348e+108 0	-1.37745e+110 5.74523e+108 0	1.71919e+109 -1.25557e+108 0	
-6.02853e+106 -1.37379e+106 0	
1.53569e+103 2.78775e+102 0	-9.12491e+105 -8.01039e+104 0	9.49902e+106 -1.37655e+105 0	-2.70331e+107 3.90768e+105 0	3.14455e+107 3.36177e+105 0	
-1.74956e+107 -1.01127e+106 0	4.44247e+106 1.33145e+106 0	3.76651e+105 4.21497e+105 0	3.58157e+104 -7.30445e+105 0	-2.01739e+104 -1.92441e+105 0	
-1.64591e+105 -7.62219e+104 0	-1.30245e+105 -5.0459e+104 0	-7.31923e+105 8.75158e+105 0	8.75613e+106 1.88991e+106 0	-1.26294e+108 1.14806e+107 0	
7.52895e+108 -7.37271e+106 0	-1.8375e+109 -5.2462e+107 0	2.09173e+109 1.56522e+107 0	-1.01975e+109 3.23814e+107 0	1.482e+108 -7.07546e+106 0	
-8.78602e+105 -1.83066e+105 0	
2.26024e+103 -1.32948e+102 0	-3.51864e+105 -2.04348e+104 0	2.61245e+106 2.87237e+104 0	-6.20078e+106 5.07946e+104 0	6.49441e+106 -9.07136e+104 0	
-3.26817e+106 6.63131e+104 0	8.05643e+105 7.01932e+104 0	-4.20406e+104 -4.69623e+104 0	2.74284e+103 -2.81452e+104 0	-1.7223e+104 -1.77212e+104 0	
-7.34927e+103 1.97477e+103 0	-1.56205e+104 -2.37414e+103 0	-7.33393e+104 9.89789e+104 0	7.51015e+105 1.31877e+105 0	-8.27762e+106 -7.13689e+104 0	
4.94241e+107 4.35941e+105 0	-1.23694e+108 -2.51861e+106 0	1.44932e+108 1.82159e+105 0	-7.58333e+107 1.79731e+106 0	1.28705e+107 -3.00533e+105 0	
-1.27256e+105 -2.45199e+104 0	
1.03958e+103 -1.02404e+102 0	-7.78974e+104 -2.11749e+103 0	4.67258e+105 6.21506e+103 0	-9.96333e+105 -1.66264e+103 0	9.716e+105 -4.02114e+103 0	
-4.55112e+105 1.00906e+104 0	1.02374e+105 -2.29251e+103 0	-6.84641e+103 -2.98281e+103 0	-9.52957e+102 -2.30702e+103 0	-1.64908e+103 -6.85216e+102 0	
-2.10734e+102 3.31469e+102 0	-1.40085e+103 2.67663e+102 0	-2.3034e+103 6.5652e+103 0	4.835e+104 1.07722e+104 0	-5.60554e+105 -2.33838e+104 0	
3.35562e+106 1.05759e+104 0	-8.49175e+106 -7.76206e+104 0	1.01055e+107 -6.52624e+103 0	-5.49993e+106 6.44308e+104 0	1.05874e+106 2.11806e+103 0	
-1.73632e+104 -3.13156e+103 0	
2.73266e+102 -3.14517e+101 0	-1.19059e+104 7.28147e+100 0	6.28254e+104 2.11252e+102 0	-1.2527e+105 -6.41144e+101 0	1.16052e+105 1.87006e+102 0	
-5.18602e+104 3.69182e+102 0	1.09963e+104 -3.20818e+102 0	-7.95827e+102 -2.27688e+102 0	-1.59329e+102 -1.70359e+102 0	-1.18457e+102 -3.16069e+99 0	
2.87156e+99 2.48975e+101 0	-1.05361e+102 5.33354e+101 0	2.92509e+100 4.19923e+102 0	3.32399e+103 5.26988e+102 0	-3.89782e+104 -1.30473e+103 0	
2.29393e+105 -1.12008e+103 0	-5.82068e+105 -3.12306e+103 0	7.00836e+105 3.16133e+103 0	-3.90531e+105 -1.20544e+103 0	8.14507e+104 2.02563e+103 0	
-2.08826e+103 -3.57687e+102 0	
4.85975e+101 -6.0294e+100 0	-1.43306e+103 3.01808e+101 0	7.04535e+103 -5.11458e+101 0	-1.34559e+104 5.79613e+101 0	1.2034e+104 2.45047e+101 0	
-5.21099e+103 -1.48503e+101 0	1.0648e+103 -1.75551e+101 0	-8.25662e+101 -2.23788e+101 0	-1.62363e+101 -1.0012e+101 0	-7.6648e+100 2.81637e+100 0	
6.23403e+99 1.52809e+100 0	-7.08474e+100 5.82569e+100 0	7.70505e+100 2.74257e+101 0	2.36949e+102 1.64428e+101 0	-2.73832e+103 -6.07664e+101 0	
1.5828e+104 -1.23331e+102 0	-4.01908e+104 -2.65978e+102 0	4.88008e+104 5.66612e+102 0	-2.76236e+104 -4.39168e+102 0	6.01898e+103 2.52778e+102 0	
-2.18584e+102 -3.6022e+101 0	
7.33596e+100 -9.62012e+99 0	-1.59305e+102 7.50024e+100 0	7.31356e+102 -2.10015e+101 0	-1.3272e+103 2.99624e+101 0	1.13668e+103 -1.54385e+101 0	
-4.73186e+102 3.62141e+100 0	9.26753e+101 -2.42758e+100 0	-7.43229e+100 -1.86236e+100 0	-1.41105e+100 -4.96995e+99 0	-4.71809e+99 3.57247e+99 0	
6.30605e+98 8.61043e+98 0	-4.47691e+99 5.27801e+99 0	9.2556e+99 1.78906e+100 0	1.64754e+101 3.10995e+99 0	-1.88947e+102 -5.86744e+100 0	
1.09174e+103 4.17282e+100 0	-2.80656e+103 -5.4971e+101 0	3.47059e+103 9.50353e+101 0	-2.01452e+103 -6.90814e+101 0	4.57333e+102 2.78679e+101 0	
-2.15819e+101 -3.43816e+100 0	
6.7764e+99 -9.13437e+98 0	-1.43956e+101 7.1879e+99 0	6.52783e+101 -1.96829e+100 0	-1.17198e+102 2.76914e+100 0	9.93755e+101 -1.44422e+100 0	
-4.09282e+101 2.95977e+99 0	7.88539e+100 -2.25432e+99 0	-6.4961e+99 -1.42717e+99 0	-1.15198e+99 -2.03296e+98 0	-2.82233e+98 3.42988e+98 0	
4.7971e+97 4.66674e+97 0	-2.73925e+98 4.40458e+98 0	8.74673e+98 1.16121e+99 0	1.18087e+100 -1.81373e+98 0	-1.34849e+101 -4.34421e+99 0	
7.68668e+101 3.35021e+99 0	-1.96443e+102 -3.74903e+100 0	2.41925e+102 6.60259e+100 0	-1.40119e+102 -4.8236e+100 0	3.18684e+101 1.92508e+100 0	
-1.52713e+100 -2.38243e+99 0	
5.85189e+98 -8.0454e+97 0	-1.23126e+100 6.37031e+98 0	5.54848e+100 -1.72258e+99 0	-9.90025e+100 2.40853e+99 0	8.343e+100 -1.26844e+99 0	
-3.41196e+100 2.35677e+98 0	6.49723e+99 -1.95835e+98 0	-5.44717e+98 -1.06986e+98 0	-9.1023e+97 -4.30056e+96 0	-1.66092e+97 2.96535e+97 0	
3.25693e+96 2.49195e+96 0	-1.64716e+97 3.52605e+97 0	7.50702e+97 7.6247e+97 0	8.54885e+98 -3.52264e+97 0	-9.74181e+99 -3.20326e+98 0	
5.49243e+100 2.59585e+98 0	-1.39604e+101 -2.60382e+99 0	1.71168e+101 4.63967e+99 0	-9.87979e+100 -3.38756e+99 0	2.24385e+100 1.33857e+99 0	
-1.08055e+99 -1.65873e+98 0	
4.82446e+97 -6.72909e+96 0	-1.0138e+99 5.35242e+97 0	4.55827e+99 -1.43704e+98 0	-8.10839e+99 2.007e+98 0	6.80894e+99 -1.06547e+98 0	
-2.77218e+99 1.83689e+97 0	5.23575e+98 -1.63404e+97 0	-4.44437e+97 -7.95087e+96 0	-7.07348e+96 3.62512e+95 0	-9.67816e+95 2.43852e+96 0	
2.08732e+95 1.32869e+95 0	-9.81921e+95 2.76261e+96 0	6.15187e+96 5.08835e+96 0	6.24926e+97 -3.80135e+96 0	-7.11207e+98 -2.36765e+97 0	
3.97415e+99 1.97017e+97 0	-1.00514e+100 -1.83541e+98 0	1.22694e+100 3.2947e+98 0	-7.05288e+99 -2.39612e+98 0	1.59635e+99 9.38349e+97 0	
-7.6716e+97 -1.16311e+97 0	
3.85213e+96 -5.43034e+95 0	-8.1291e+97 4.33438e+96 0	3.65638e+98 -1.15921e+97 0	-6.49761e+98 1.62255e+97 0	5.44713e+98 -8.67179e+96 0	
-2.2119e+98 1.40766e+96 0	4.15397e+97 -1.32855e+96 0	-3.55985e+96 -5.90284e+95 0	-5.4526e+95 6.95737e+94 0	-5.59752e+94 1.95329e+95 0	
1.29516e+94 7.12686e+93 0	-5.83941e+94 2.14115e+95 0	4.91818e+95 3.46014e+95 0	4.60859e+96 -3.49703e+95 0	-5.2381e+97 -1.75819e+96 0	
2.90567e+98 1.4766e+96 0	-7.31617e+98 -1.30961e+97 0	8.89213e+98 2.36163e+97 0	-5.08911e+98 -1.70728e+97 0	1.14659e+98 6.6329e+96 0	
-5.4739e+96 -8.22042e+95 0	
3.00626e+95 -4.27158e+94 0	-6.39438e+96 3.41657e+95 0	2.88253e+97 -9.11766e+95 0	-5.12505e+97 1.28197e+96 0	4.29512e+97 -6.8891e+95 0	
-1.74189e+97 1.06106e+95 0	3.25909e+96 -1.06141e+95 0	-2.81516e+95 -4.39423e+94 0	-4.18829e+94 7.8434e+93 0	-3.21043e+93 1.54225e+94 0	
7.88471e+92 3.86014e+92 0	-3.48325e+93 1.65128e+94 0	3.87727e+94 2.39928e+94 0	3.42418e+95 -2.99624e+94 0	-3.88529e+96 -1.31207e+95 0	
2.14216e+97 1.09357e+95 0	-5.37167e+97 -9.42384e+95 0	6.50136e+97 1.70429e+96 0	-3.70389e+97 -1.22307e+96 0	8.30017e+96 4.71996e+95 0	
-3.92469e+95 -5.85109e+94 0	
2.3085e+94 -3.29962e+93 0	-4.95963e+95 2.64237e+94 0	2.24348e+96 -7.04807e+94 0	-3.99498e+96 9.97626e+94 0	3.35018e+96 -5.39135e+94 0	
-1.35825e+96 7.95054e+93 0	2.53532e+95 -8.39006e+93 0	-2.20554e+94 -3.28429e+93 0	-3.21325e+93 7.52637e+92 0	-1.81729e+92 1.20799e+93 0	
4.74556e+91 2.11428e+91 0	-2.09705e+92 1.27124e+93 0	3.03154e+93 1.69572e+93 0	2.5591e+94 -2.47016e+93 0	-2.8969e+95 -9.85067e+93 0	
1.58909e+96 8.09533e+93 0	-3.9699e+96 -6.84327e+94 0	4.78537e+96 1.23854e+95 0	-2.71378e+96 -8.81077e+94 0	6.04608e+95 3.37912e+94 0	
-2.82687e+94 -4.19102e+93 0	
1.74865e+93 -2.51055e+92 0	-3.80271e+94 2.01051e+93 0	1.72793e+95 -5.36438e+93 0	-3.08442e+95 7.65857e+93 0	2.59039e+95 -4.1612e+93 0	
-1.05074e+95 5.89337e+92 0	1.95891e+94 -6.57842e+92 0	-1.71581e+93 -2.46515e+92 0	-2.46491e+92 6.69338e+91 0	-1.00412e+91 9.42003e+91 0	
2.83702e+90 1.17105e+90 0	-1.28484e+91 9.7865e+91 0	2.3583e+92 1.22013e+92 0	1.92101e+93 -1.99004e+92 0	-2.16758e+94 -7.4282e+92 0	
1.18379e+95 5.94731e+92 0	-2.94682e+95 -4.99124e+93 0	3.53779e+95 9.0287e+93 0	-1.99679e+95 -6.35816e+93 0	4.42074e+94 2.42532e+93 0	
-2.04014e+93 -3.01183e+92 0	
1.30775e+92 -1.88383e+91 0	-2.88498e+93 1.50634e+92 0	1.31827e+94 -4.02256e+92 0	-2.361e+94 5.80553e+92 0	1.98734e+94 -3.17172e+92 0	
-8.07134e+93 4.31385e+91 0	1.50432e+93 -5.12717e+91 0	-1.32708e+92 -1.85704e+91 0	-1.89139e+91 5.70654e+90 0	-5.28553e+89 7.32904e+90 0	
1.68979e+89 6.55359e+88 0	-8.10483e+89 7.54071e+90 0	1.82853e+91 8.92434e+90 0	1.4461e+92 -1.5792e+91 0	-1.62461e+93 -5.62082e+91 0	
8.83726e+93 4.32463e+91 0	-2.19202e+94 -3.64491e+92 0	2.62054e+94 6.58156e+92 0	-1.4716e+94 -4.57967e+92 0	3.23548e+93 1.7387e+92 0	
-1.47088e+92 -2.16444e+91 0	
9.64667e+90 -1.39313e+90 0	-2.16473e+92 1.10997e+91 0	9.95999e+92 -2.96749e+91 0	-1.79155e+93 4.34275e+91 0	1.51278e+93 -2.38674e+91 0	
-6.15646e+92 3.10518e+90 0	1.14808e+92 -3.97689e+90 0	-1.02095e+91 -1.40268e+90 0	-1.45169e+90 4.74438e+89 0	-2.49438e+88 5.69654e+89 0	
1.0049e+88 3.70101e+87 0	-5.34396e+88 5.81824e+89 0	1.41441e+90 6.62495e+89 0	1.08992e+91 -1.23985e+90 0	-1.21729e+92 -4.26312e+90 0	
6.59639e+92 3.09725e+90 0	-1.63001e+93 -2.65537e+91 0	1.93966e+93 4.7797e+91 0	-1.08311e+93 -3.2773e+91 0	2.36258e+92 1.23915e+91 0	
-1.05535e+91 -1.54917e+90 0	
6.99938e+89 -1.01275e+89 0	-1.60357e+91 8.01487e+89 0	7.44164e+91 -2.14542e+90 0	-1.34609e+92 3.19785e+90 0	1.14147e+92 -1.76971e+90 0	
-4.65898e+91 2.18157e+89 0	8.70086e+90 -3.07162e+89 0	-7.81145e+89 -1.06104e+89 0	-1.11421e+89 3.88493e+88 0	-8.46986e+86 4.42706e+88 0	
5.97652e+86 2.10604e+86 0	-3.74491e+87 4.49657e+88 0	1.09196e+89 4.98434e+88 0	8.21039e+89 -9.65396e+88 0	-9.09771e+90 -3.23716e+89 0	
4.91077e+91 2.16696e+89 0	-1.20833e+92 -1.92124e+90 0	1.43019e+92 3.44174e+90 0	-7.93369e+91 -2.31565e+90 0	1.71446e+91 8.7251e+89 0	
-7.4985e+89 -1.09866e+89 0	
4.97155e+88 -7.20372e+87 0	-1.16882e+90 5.63392e+88 0	5.48349e+90 -1.50945e+89 0	-9.99157e+90 2.3074e+89 0	8.52095e+90 -1.28788e+89 0	
-3.49207e+90 1.47628e+88 0	6.53755e+89 -2.36259e+88 0	-5.93968e+88 -8.02669e+87 0	-8.54818e+87 3.15341e+87 0	1.33694e+85 3.44212e+87 0	
3.55963e+85 1.20559e+85 0	-2.82603e+86 3.48144e+87 0	8.41435e+87 3.79628e+87 0	6.16981e+88 -7.46347e+87 0	-6.76401e+89 -2.458e+88 0	
3.63541e+90 1.4606e+88 0	-8.89989e+90 -1.37257e+89 0	1.04656e+91 2.44181e+89 0	-5.75902e+90 -1.60133e+89 0	1.23032e+90 6.01803e+88 0	
-5.24227e+88 -7.67002e+87 0	
3.43177e+87 -4.97797e+86 0	-8.3393e+88 3.81282e+87 0	3.96784e+89 -1.02112e+88 0	-7.29992e+89 1.61894e+88 0	6.2731e+89 -9.13738e+87 0	
-2.58524e+89 9.38494e+86 0	4.85764e+88 -1.80912e+87 0	-4.48238e+87 -6.06284e+86 0	-6.55131e+86 2.54887e+86 0	7.24985e+84 2.67887e+86 0	
2.12597e+84 6.92552e+83 0	-2.30499e+85 2.70081e+86 0	6.47008e+86 2.92479e+86 0	4.6146e+87 -5.73029e+86 0	-4.98595e+88 -1.86384e+87 0	
2.66622e+89 9.24155e+86 0	-6.48593e+89 -9.60423e+87 0	7.56432e+89 1.69163e+88 0	-4.12021e+89 -1.06941e+88 0	8.67532e+88 4.01555e+87 0	
-3.57555e+87 -5.22585e+86 0	
2.27783e+86 -3.3068e+85 0	-5.77938e+87 2.43785e+86 0	2.8012e+88 -6.50096e+86 0	-5.22054e+88 1.09056e+87 0	4.53288e+88 -6.25029e+86 0	
-1.88246e+88 5.30042e+85 0	3.55581e+87 -1.37808e+86 0	-3.35008e+86 -4.56391e+85 0	-5.01164e+85 2.05862e+85 0	1.08805e+84 2.08772e+85 0	
1.27488e+83 3.96885e+82 0	-2.01615e+84 2.09972e+85 0	4.96182e+85 2.27838e+85 0	3.42562e+86 -4.36696e+85 0	-3.62776e+87 -1.40925e+86 0	
1.9277e+88 5.1788e+85 0	-4.65088e+88 -6.50259e+86 0	5.36576e+88 1.12879e+87 0	-2.88397e+88 -6.74443e+86 0	5.95906e+87 2.54101e+86 0	
-2.35193e+86 -3.43472e+85 0	
1.43139e+85 -2.07925e+84 0	-3.84605e+86 1.42154e+85 0	1.91074e+87 -3.73095e+85 0	-3.62409e+87 6.89737e+85 0	3.19197e+87 -4.04298e+85 0	
-1.33979e+87 2.22949e+84 0	2.54974e+86 -1.04304e+85 0	-2.47216e+85 -3.41598e+84 0	-3.82256e+84 1.66581e+84 0	1.31619e+83 1.6298e+84 0	
7.68626e+81 2.22362e+81 0	-1.86185e+83 1.63616e+84 0	3.79166e+84 1.7942e+84 0	2.51497e+85 -3.29895e+84 0	-2.58951e+86 -1.06065e+85 0	
1.36467e+87 2.13084e+84 0	-3.2562e+87 -4.1754e+85 0	3.70214e+87 7.09012e+85 0	-1.95457e+87 -3.84576e+85 0	3.93922e+86 1.47116e+85 0	
-1.46797e+85 -2.14254e+84 0	
8.32187e+83 -1.20939e+83 0	-2.41505e+85 6.97582e+83 0	1.24053e+86 -1.72632e+84 0	-2.41091e+86 3.91706e+84 0	2.16665e+86 -2.38113e+84 0	
-9.23222e+85 -3.19827e+81 0	1.77581e+85 -7.83092e+83 0	-1.7934e+84 -2.53474e+83 0	-2.90267e+83 1.3532e+83 0	1.46274e+82 1.27475e+83 0	
4.66517e+80 1.11894e+80 0	-1.7838e+82 1.27795e+83 0	2.88327e+83 1.42812e+83 0	1.8174e+84 -2.46498e+83 0	-1.79734e+85 -7.92914e+83 0	
9.366e+85 -1.09556e+82 0	-2.2007e+86 -2.44762e+84 0	2.45157e+86 4.00784e+84 0	-1.2629e+86 -1.77429e+84 0	2.46129e+85 7.19337e+83 0	
-8.4917e+83 -1.23886e+83 0	
4.32072e+82 -6.28121e+81 0	-1.39116e+84 2.15113e+82 0	7.47996e+84 -3.56803e+82 0	-1.50511e+85 1.77944e+83 0	1.39296e+85 -1.16362e+83 0	
-6.0671e+84 -1.62842e+82 0	1.18528e+84 -5.81841e+82 0	-1.27103e+83 -1.85748e+82 0	-2.18972e+82 1.10482e+82 0	1.55688e+81 9.98833e+81 0	
2.85376e+79 2.71471e+78 0	-1.74587e+81 1.0003e+82 0	2.17739e+82 1.14844e+82 0	1.28429e+83 -1.81577e+82 0	-1.19659e+84 -5.87231e+82 0	
6.13674e+84 -1.68788e+82 0	-1.41033e+85 -1.19472e+83 0	1.52533e+85 1.81733e+83 0	-7.5881e+84 -3.72015e+82 0	1.41266e+84 2.23125e+82 0	
-4.39274e+82 -6.40688e+81 0	
1.89277e+81 -2.75227e+80 0	-6.99242e+82 -6.74534e+80 0	4.00611e+83 4.77044e+81 0	-8.49215e+83 3.46592e+81 0	8.2255e+83 -3.15619e+81 0	
-3.70539e+83 -2.65826e+81 0	7.41205e+82 -4.2655e+81 0	-8.72219e+81 -1.33742e+81 0	-1.63614e+81 9.06451e+80 0	1.6125e+80 7.83408e+80 0	
1.76046e+78 -6.56412e+77 0	-1.7237e+80 7.83953e+80 0	1.62823e+81 9.31746e+80 0	8.79384e+81 -1.31244e+81 0	-7.46885e+82 -4.29444e+81 0	
3.73993e+83 -2.70271e+81 0	-8.30911e+83 -3.28452e+81 0	8.58594e+83 3.58683e+81 0	-4.0542e+83 4.76262e+81 0	7.08291e+82 -6.56077e+80 0	
-1.91941e+81 -2.79923e+80 0	
6.37227e+79 -9.26811e+78 0	-2.75316e+81 -1.892e+80 0	1.72593e+82 8.59573e+80 0	-3.99288e+82 -4.88383e+80 0	4.18959e+82 2.18697e+80 0	
-1.999e+82 -3.18741e+80 0	4.15878e+81 -3.07389e+80 0	-5.71935e+80 -9.39896e+79 0	-1.20572e+80 7.45611e+79 0	1.63281e+79 6.13617e+79 0	
1.0946e+77 -2.11441e+77 0	-1.6981e+79 6.13696e+79 0	1.2006e+80 7.60183e+79 0	5.75695e+80 -9.24949e+79 0	-4.18535e+81 -3.08899e+80 0	
2.01487e+82 -3.21971e+80 0	-4.22624e+82 2.14696e+80 0	4.03158e+82 -4.87526e+80 0	-1.74451e+82 8.63753e+80 0	2.78546e+81 -1.89635e+80 0	
-6.45158e+79 -9.41087e+78 0	
1.59861e+78 -2.3267e+77 0	-5.77863e+79 -1.93512e+79 0	4.15055e+80 8.7848e+79 0	-1.19832e+81 -8.20332e+79 0	1.54001e+81 4.84162e+79 0	
-8.35902e+80 -3.26362e+79 0	1.88545e+80 -2.16842e+79 0	-3.5123e+79 -6.39902e+78 0	-8.71008e+78 6.10851e+78 0	1.61324e+78 4.76985e+78 0	
6.84181e+75 -5.19251e+76 0	-1.65138e+78 4.76852e+78 0	8.67703e+78 6.19155e+78 0	3.53121e+79 -6.31016e+78 0	-1.89643e+80 -2.17601e+79 0	
8.42299e+80 -3.28627e+79 0	-1.55356e+81 4.83934e+79 0	1.21107e+81 -8.23213e+79 0	-4.20471e+80 8.8311e+79 0	5.86182e+79 -1.94403e+79 0	
-1.61466e+78 -2.35724e+77 0	
1.56102e+77 -2.27325e+76 0	1.8877e+78 -1.32147e+78 0	-1.5228e+79 6.44713e+78 0	2.16477e+79 -7.55379e+78 0	3.95409e+78 5.24401e+78 0	
-1.26958e+79 -2.93731e+78 0	4.32618e+78 -1.4951e+78 0	-1.95484e+78 -4.23451e+77 0	-6.10407e+77 4.87865e+77 0	1.54873e+77 3.58895e+77 0	
4.27549e+74 -1.55222e+76 0	-1.57076e+77 3.58689e+77 0	6.08299e+77 4.92511e+77 0	1.96379e+78 -4.18251e+77 0	-4.3609e+78 -1.49876e+78 0	
1.28899e+79 -2.95244e+78 0	-4.28306e+78 5.25362e+78 0	-2.14389e+79 -7.5847e+78 0	1.51754e+79 6.4802e+78 0	-1.88189e+78 -1.32799e+78 0	
-1.56162e+77 -2.27556e+76 0	
6.64812e+76 -9.67664e+75 0	2.22989e+77 -5.96708e+76 0	-2.30314e+78 3.05422e+77 0	6.03846e+78 -4.37641e+77 0	-5.47102e+78 3.92218e+77 0	
2.09227e+78 -2.31099e+77 0	-3.32758e+77 -1.04423e+77 0	-9.13485e+76 -3.15821e+76 0	-3.96405e+76 3.2787e+76 0	1.48776e+76 2.0956e+76 0	
2.66779e+73 -7.62183e+75 0	-1.50015e+76 2.09352e+76 0	3.95108e+76 3.30392e+76 0	9.17358e+76 -3.12875e+76 0	3.32475e+77 -1.04593e+77 0	
-2.09089e+78 -2.32039e+77 0	5.47498e+78 3.93178e+77 0	-6.04933e+78 -4.39617e+77 0	2.30907e+78 3.07104e+77 0	-2.23686e+77 -5.99745e+76 0	
-6.64545e+76 -9.67347e+75 0	
2.48821e+76 -3.62122e+75 0	3.40947e+75 -7.55023e+74 0	-9.59099e+76 2.34679e+75 0	3.88729e+77 -7.55771e+75 0	-4.94545e+77 1.45814e+76 0	
2.65287e+77 -1.77268e+76 0	-5.27735e+76 -1.07516e+76 0	-1.2051e+75 -6.29191e+75 0	-1.07033e+75 -2.15415e+75 0	1.97477e+75 -3.27938e+75 0	
1.84102e+72 -5.42484e+75 0	-1.98101e+75 -3.28118e+75 0	1.06329e+75 -2.14125e+75 0	1.2202e+75 -6.27641e+75 0	5.28446e+76 -1.07599e+76 0	
-2.65645e+77 -1.77794e+76 0	4.95579e+77 1.46351e+76 0	-3.8986e+77 -7.6305e+75 0	9.62988e+76 2.39487e+75 0	-3.45279e+75 -7.65087e+74 0	
-2.48781e+76 -3.62085e+75 0	
7.40758e+75 -1.07795e+75 0	-3.57955e+75 5.59281e+74 0	4.96125e+75 -1.62617e+75 0	6.83096e+75 8.49442e+72 0	-1.16261e+76 -2.85162e+75 0	
1.76804e+76 -3.63922e+75 0	-1.41354e+75 -3.96569e+75 0	1.90825e+75 -3.98469e+75 0	1.18925e+75 -3.92891e+75 0	7.64085e+74 -4.13285e+75 0	
2.79486e+71 -4.32064e+75 0	-7.64051e+74 -4.13304e+75 0	-1.18928e+75 -3.92842e+75 0	-1.90747e+75 -3.98414e+75 0	1.42081e+75 -3.96637e+75 0	
-1.77103e+76 -3.64189e+75 0	1.1684e+76 -2.85076e+75 0	-6.86871e+75 8.89906e+72 0	-4.95447e+75 -1.62673e+75 0	3.57439e+75 5.58502e+74 0	
-7.40769e+75 -1.07803e+75 0	
1.81827e+75 -2.64566e+74 0	-6.3269e+74 8.17788e+73 0	4.34723e+75 -1.01336e+75 0	2.14549e+75 -1.28029e+75 0	4.6955e+75 -2.21994e+75 0	
2.51489e+75 -2.51206e+75 0	2.0677e+75 -2.89998e+75 0	1.63286e+75 -3.14913e+75 0	1.0915e+75 -3.32024e+75 0	5.57676e+74 -3.43562e+75 0	
1.31718e+71 -3.4813e+75 0	-5.57442e+74 -3.43568e+75 0	-1.09128e+75 -3.32032e+75 0	-1.63265e+75 -3.14926e+75 0	-2.06717e+75 -2.9002e+75 0	
-2.51584e+75 -2.51236e+75 0	-4.69486e+75 -2.22027e+75 0	-2.14493e+75 -1.28029e+75 0	-4.34677e+75 -1.01346e+75 0	6.31733e+74 8.16324e+73 0	
-1.81844e+75 -2.64606e+74 0	
5.82902e+74 -8.48408e+73 0	1.16452e+75 -2.17365e+74 0	3.2948e+75 -8.5199e+74 0	2.48289e+75 -1.18269e+75 0	2.89849e+75 -1.70504e+75 0	
1.93455e+75 -2.01097e+75 0	1.72619e+75 -2.29409e+75 0	1.29638e+75 -2.50662e+75 0	8.72968e+74 -2.65734e+75 0	4.39405e+74 -2.74802e+75 0	
8.10576e+70 -2.7786e+75 0	-4.39248e+74 -2.74806e+75 0	-8.72825e+74 -2.65741e+75 0	-1.29626e+75 -2.50673e+75 0	-1.72609e+75 -2.29422e+75 0	
-1.93449e+75 -2.01112e+75 0	-2.89856e+75 -1.70519e+75 0	-2.48306e+75 -1.18284e+75 0	-3.29464e+75 -8.52044e+74 0	-1.16465e+75 -2.174e+74 0	
-5.82922e+74 -8.48495e+73 0	
4.7946e+74 -6.98208e+73 0	1.60178e+75 -3.05222e+74 0	2.36085e+75 -6.94889e+74 0	2.01267e+75 -9.89874e+74 0	2.07382e+75 -1.35242e+75 0	
1.55171e+75 -1.5947e+75 0	1.32873e+75 -1.81043e+75 0	1.00811e+75 -1.97734e+75 0	6.80426e+74 -2.09691e+75 0	3.42669e+74 -2.16878e+75 0	
4.97885e+70 -2.19279e+75 0	-3.42573e+74 -2.1688e+75 0	-6.8034e+74 -2.09696e+75 0	-1.00804e+75 -1.97741e+75 0	-1.32868e+75 -1.81051e+75 0	
-1.5517e+75 -1.59479e+75 0	-2.07381e+75 -1.35252e+75 0	-2.01277e+75 -9.8996e+74 0	-2.36089e+75 -6.9494e+74 0	-1.60182e+75 -3.05244e+74 0	
-4.79451e+74 -6.98237e+73 0	
5.32818e+74 -7.75987e+73 0	1.47378e+75 -2.97631e+74 0	1.73769e+75 -5.67611e+74 0	1.61183e+75 -8.16248e+74 0	1.51496e+75 -1.06564e+75 0	
1.20164e+75 -1.25326e+75 0	1.0156e+75 -1.4175e+75 0	7.74206e+74 -1.54613e+75 0	5.23449e+74 -1.63888e+75 0	2.63896e+74 -1.69486e+75 0	
2.99795e+70 -1.71358e+75 0	-2.63838e+74 -1.69487e+75 0	-5.23398e+74 -1.63891e+75 0	-7.74165e+74 -1.54617e+75 0	-1.01557e+75 -1.41755e+75 0	
-1.20163e+75 -1.25331e+75 0	-1.51496e+75 -1.06569e+75 0	-1.61187e+75 -8.16297e+74 0	-1.73773e+75 -5.67646e+74 0	-1.47381e+75 -2.97648e+74 0	
-5.32815e+74 -7.76016e+73 0	
5.47912e+74 -7.97971e+73 0	1.22259e+75 -2.61864e+74 0	1.3255e+75 -4.63975e+74 0	1.2474e+75 -6.57317e+74 0	1.10967e+75 -8.32924e+74 0	
9.22658e+74 -9.7735e+74 0	7.71498e+74 -1.10164e+75 0	5.89951e+74 -1.1998e+75 0	3.9934e+74 -1.27089e+75 0	2.01478e+74 -1.31393e+75 0	
1.7778e+70 -1.32835e+75 0	-2.01443e+74 -1.31394e+75 0	-3.9931e+74 -1.27091e+75 0	-5.89928e+74 -1.19983e+75 0	-7.71482e+74 -1.10167e+75 0	
-9.22653e+74 -9.77384e+74 0	-1.10968e+75 -8.32958e+74 0	-1.24742e+75 -6.57346e+74 0	-1.32552e+75 -4.63997e+74 0	-1.22261e+75 -2.61876e+74 0	
-5.47914e+74 -7.98e+73 0	
5.18119e+74 -7.54581e+73 0	9.79799e+74 -2.2089e+74 0	1.01507e+75 -3.7447e+74 0	9.39281e+74 -5.18864e+74 0	8.23371e+74 -6.46731e+74 0	
7.03272e+74 -7.56841e+74 0	5.83782e+74 -8.50635e+74 0	4.47353e+74 -9.25122e+74 0	3.0304e+74 -9.79213e+74 0	1.52966e+74 -1.01202e+75 0	
1.04286e+70 -1.02302e+75 0	-1.52946e+74 -1.01203e+75 0	-3.03022e+74 -9.79224e+74 0	-4.47339e+74 -9.25137e+74 0	-5.83774e+74 -8.50654e+74 0	
-7.0327e+74 -7.56861e+74 0	-8.23374e+74 -6.46751e+74 0	-9.39292e+74 -5.18882e+74 0	-1.01509e+75 -3.74483e+74 0	-9.79814e+74 -2.20897e+74 0	
-5.18123e+74 -7.54604e+73 0	
4.62711e+74 -6.73888e+73 0	7.70269e+74 -1.81439e+74 0	7.69457e+74 -2.9725e+74 0	7.00783e+74 -4.04112e+74 0	6.17046e+74 -4.99173e+74 0	
5.32938e+74 -5.82538e+74 0	4.4078e+74 -6.53243e+74 0	3.38194e+74 -7.09571e+74 0	2.292e+74 -7.50545e+74 0	1.15728e+74 -7.75425e+74 0	
6.07041e+69 -7.83772e+74 0	-1.15717e+74 -7.75429e+74 0	-2.2919e+74 -7.50551e+74 0	-3.38186e+74 -7.0958e+74 0	-4.40775e+74 -6.53254e+74 0	
-5.32936e+74 -5.8255e+74 0	-6.17048e+74 -4.99185e+74 0	-7.00788e+74 -4.04123e+74 0	-7.69466e+74 -2.97258e+74 0	-7.70279e+74 -1.81444e+74 0	
-4.62715e+74 -6.73905e+73 0	
3.96992e+74 -5.7818e+73 0	5.9622e+74 -1.45939e+74 0	5.7801e+74 -2.32593e+74 0	5.23163e+74 -3.11947e+74 0	4.64403e+74 -3.83248e+74 0	
4.02456e+74 -4.46139e+74 0	3.32383e+74 -4.9941e+74 0	2.55198e+74 -5.41922e+74 0	1.73001e+74 -5.72877e+74 0	8.73678e+73 -5.91687e+74 0	
3.51404e+69 -5.97999e+74 0	-8.7361e+73 -5.91689e+74 0	-1.72995e+74 -5.72881e+74 0	-2.55194e+74 -5.41927e+74 0	-3.3238e+74 -4.99416e+74 0	
-4.02455e+74 -4.46146e+74 0	-4.64404e+74 -3.83255e+74 0	-5.23166e+74 -3.11953e+74 0	-5.78015e+74 -2.32598e+74 0	-5.96226e+74 -1.45942e+74 0	
-3.96994e+74 -5.78191e+73 0	
3.30573e+74 -4.81451e+73 0	4.55769e+74 -1.15418e+74 0	4.32364e+74 -1.80057e+74 0	3.91759e+74 -2.39301e+74 0	3.49879e+74 -2.92934e+74 0	
3.03378e+74 -3.40308e+74 0	2.50445e+74 -3.80429e+74 0	1.92355e+74 -4.12476e+74 0	1.30421e+74 -4.35825e+74 0	6.58715e+73 -4.5002e+74 0	
2.02611e+69 -4.54783e+74 0	-6.58676e+73 -4.50021e+74 0	-1.30418e+74 -4.35828e+74 0	-1.92353e+74 -4.12479e+74 0	-2.50443e+74 -3.80433e+74 0	
-3.03377e+74 -3.40313e+74 0	-3.4988e+74 -2.92938e+74 0	-3.91761e+74 -2.39304e+74 0	-4.32367e+74 -1.8006e+74 0	-4.55772e+74 -1.1542e+74 0	
-3.30575e+74 -4.81458e+73 0	
2.6898e+74 -3.91748e+73 0	3.45282e+74 -9.00902e+73 0	3.23208e+74 -1.38322e+74 0	2.94095e+74 -1.82726e+74 0	2.63561e+74 -2.23097e+74 0	
2.28494e+74 -2.58761e+74 0	1.88611e+74 -2.8897e+74 0	1.4489e+74 -3.13112e+74 0	9.8249e+73 -3.30707e+74 0	4.96254e+73 -3.41406e+74 0	
1.16481e+69 -3.44997e+74 0	-4.96231e+73 -3.41407e+74 0	-9.82471e+73 -3.30708e+74 0	-1.44889e+74 -3.13113e+74 0	-1.8861e+74 -2.88972e+74 0	
-2.28494e+74 -2.58764e+74 0	-2.63562e+74 -2.23099e+74 0	-2.94096e+74 -1.82728e+74 0	-3.2321e+74 -1.38324e+74 0	-3.45284e+74 -9.00914e+73 0	
-2.68981e+74 -3.91753e+73 0	
2.1495e+74 -3.1306e+73 0	2.60081e+74 -6.96314e+73 0	2.41861e+74 -1.05683e+74 0	2.21099e+74 -1.39039e+74 0	1.98468e+74 -1.69427e+74 0	
1.72022e+74 -1.9627e+74 0	1.41999e+74 -2.19011e+74 0	1.09094e+74 -2.3719e+74 0	7.39803e+73 -2.50442e+74 0	3.73686e+73 -2.58501e+74 0	
6.68229e+68 -2.61206e+74 0	-3.73674e+73 -2.58501e+74 0	-7.39792e+73 -2.50443e+74 0	-1.09093e+74 -2.37191e+74 0	-1.41999e+74 -2.19012e+74 0	
-1.72022e+74 -1.96271e+74 0	-1.98469e+74 -1.69428e+74 0	-2.21099e+74 -1.3904e+74 0	-2.41862e+74 -1.05684e+74 0	-2.60082e+74 -6.96321e+73 0	
-2.1495e+74 -3.13063e+73 0	
1.69372e+74 -2.46681e+73 0	1.95276e+74 -5.34303e+73 0	1.81254e+74 -8.04295e+73 0	1.66334e+74 -1.05513e+74 0	1.49408e+74 -1.28385e+74 0	
1.29479e+74 -1.48586e+74 0	1.06886e+74 -1.65703e+74 0	8.21219e+73 -1.79389e+74 0	5.56915e+73 -1.89366e+74 0	2.81313e+73 -1.95435e+74 0	
3.82749e+68 -1.97471e+74 0	-2.81305e+73 -1.95435e+74 0	-5.56909e+73 -1.89367e+74 0	-8.21214e+73 -1.79389e+74 0	-1.06886e+74 -1.65704e+74 0	
-1.29479e+74 -1.48587e+74 0	-1.49408e+74 -1.28385e+74 0	-1.66334e+74 -1.05514e+74 0	-1.81254e+74 -8.04301e+73 0	-1.95277e+74 -5.34307e+73 0	
-1.69373e+74 -2.46683e+73 0	
1.3201e+74 -1.92266e+73 0	1.46403e+74 -4.07834e+73 0	1.36012e+74 -6.10356e+73 0	1.25166e+74 -7.99071e+73 0	1.12455e+74 -9.71199e+73 0	
9.74469e+73 -1.12323e+74 0	8.04454e+73 -1.25206e+74 0	6.18092e+73 -1.35507e+74 0	4.19172e+73 -1.43017e+74 0	2.11738e+73 -1.47585e+74 0	
2.18977e+68 -1.49119e+74 0	-2.11733e+73 -1.47586e+74 0	-4.19168e+73 -1.43018e+74 0	-6.18089e+73 -1.35507e+74 0	-8.04452e+73 -1.25206e+74 0	
-9.74468e+73 -1.12323e+74 0	-1.12455e+74 -9.71203e+73 0	-1.25167e+74 -7.99076e+73 0	-1.36012e+74 -6.10359e+73 0	-1.46404e+74 -4.07836e+73 0	
-1.32011e+74 -1.92267e+73 0	
1.02027e+74 -1.48598e+73 0	1.09717e+74 -3.10114e+73 0	1.02163e+74 -4.62202e+73 0	9.41945e+73 -6.04207e+73 0	8.46313e+73 -7.3374e+73 0	
7.33341e+73 -8.48149e+73 0	6.05409e+73 -9.45102e+73 0	4.65166e+73 -1.02263e+74 0	3.15467e+73 -1.07916e+74 0	1.59354e+73 -1.11354e+74 0	