# vtk DataFile Version 2.0
Titre
ASCII
DATASET STRUCTURED_POINTS
DIMENSIONS 21 101 1
ORIGIN 0.0 0.0 0.0
SPACING 0.005 0.01 0.0
POINT_DATA 2121 
VECTORS velocity float

0.437283 2.75909 0	0.465542 2.52732 0	0.576386 2.43422 0	0.661196 2.35807 0	0.725873 2.2995 0	
0.775866 2.25516 0	0.815164 2.22207 0	0.846903 2.1981 0	0.873543 2.18174 0	0.897044 2.17202 0	
0.919037 2.16838 0	0.94098 2.17061 0	0.964293 2.17884 0	0.990487 2.19357 0	1.02126 2.21573 0	
1.05856 2.24674 0	1.10449 2.2888 0	1.16092 2.3451 0	1.22839 2.42033 0	1.30357 2.52129 0	
1.53152 2.65648 0	
-2.0486 0.191146 0	-1.40498 0.192502 0	-1.05702 0.177686 0	-0.797452 0.154519 0	-0.602164 0.128723 0	
-0.452078 0.103909 0	-0.333358 0.0821664 0	-0.236125 0.0646177 0	-0.153168 0.0518209 0	-0.0789629 0.0440311 0	
-0.00897742 0.0413575 0	0.060858 0.0438517 0	0.134602 0.0515421 0	0.216761 0.0644352 0	0.312829 0.0824775 0	
0.430045 0.105484 0	0.578512 0.133035 0	0.772869 0.164359 0	1.03448 0.198289 0	1.39321 0.233479 0	
2.06916 0.269291 0	
-1.30207 -0.207929 0	-1.06145 -0.00872698 0	-0.897281 0.112108 0	-0.740752 0.185756 0	-0.600962 0.230268 0	
-0.479209 0.256758 0	-0.37355 0.272184 0	-0.280897 0.280901 0	-0.197919 0.285607 0	-0.121367 0.287916 0	
-0.0481256 0.288695 0	0.0248461 0.288251 0	0.100634 0.28638 0	0.182502 0.282334 0	0.274012 0.274657 0	
0.379066 0.260857 0	0.501771 0.236836 0	0.645849 0.195878 0	0.812988 0.126847 0	0.998819 0.0106627 0	
1.27816 -0.187756 0	
-0.711205 -0.452597 0	-0.620765 -0.268714 0	-0.566905 -0.126813 0	-0.49701 -0.0221242 0	-0.421207 0.0533462 0	
-0.345115 0.106726 0	-0.271431 0.143721 0	-0.20105 0.16862 0	-0.133798 0.184478 0	-0.0688928 0.193321 0	
-0.00523319 0.196305 0	0.0584293 0.193831 0	0.123364 0.185557 0	0.190741 0.170381 0	0.261462 0.146326 0	
0.335891 0.110366 0	0.413395 0.0581869 0	0.491577 -0.0160552 0	0.565038 -0.119831 0	0.623489 -0.261769 0	
0.717965 -0.44746 0	
-0.39915 -0.432009 0	-0.362971 -0.323628 0	-0.353203 -0.229039 0	-0.326544 -0.150006 0	-0.289145 -0.08626 0	
-0.245378 -0.03643 0	-0.198162 0.00128201 0	-0.149312 0.0286396 0	-0.0998417 0.047133 0	-0.0502249 0.0578673 0	
-0.000603202 0.0615189 0	0.0490425 0.0583243 0	0.0987369 0.0480631 0	0.148356 0.0300702 0	0.197451 0.00323863 0	
0.24504 -0.0339446 0	0.289332 -0.0832997 0	0.327405 -0.146725 0	0.354841 -0.225738 0	0.365496 -0.320778 0	
0.402541 -0.430213 0	
-0.224524 -0.376322 0	-0.206523 -0.313034 0	-0.212034 -0.252716 0	-0.205026 -0.198487 0	-0.188487 -0.151776 0	
-0.164995 -0.112977 0	-0.136627 -0.0820111 0	-0.104976 -0.0585277 0	-0.0712221 -0.0420994 0	-0.0362311 -0.0323468 0	
-0.000659376 -0.0290152 0	0.0349431 -0.0320145 0	0.0700286 -0.0414375 0	0.103947 -0.0575451 0	0.13584 -0.0807297 0	
0.164533 -0.111442 0	0.188432 -0.150066 0	0.205446 -0.196725 0	0.212968 -0.251078 0	0.207935 -0.31173 0	
0.226286 -0.375565 0	
-0.122867 -0.325126 0	-0.111888 -0.287863 0	-0.121276 -0.250288 0	-0.122321 -0.214684 0	-0.116312 -0.182503 0	
-0.104611 -0.154646 0	-0.0885035 -0.131612 0	-0.0691169 -0.113622 0	-0.0474292 -0.100752 0	-0.024282 -0.0930012 0	
-0.000418705 -0.0903475 0	0.0234693 -0.0927831 0	0.0466906 -0.100324 0	0.0685021 -0.113 0	0.0880609 -0.130825 0	
0.104386 -0.153736 0	0.116337 -0.181531 0	0.122618 -0.213727 0	0.121838 -0.249438 0	0.112678 -0.287216 0	
0.123815 -0.324766 0	
-0.0619678 -0.28431 0	-0.0545575 -0.262254 0	-0.0640465 -0.239104 0	-0.0681168 -0.216356 0	-0.0673093 -0.195091 0	
-0.0623172 -0.176121 0	-0.0538875 -0.160023 0	-0.0427666 -0.147185 0	-0.0296716 -0.137854 0	-0.0152824 -0.132178 0	
-0.000246645 -0.130232 0	0.0148056 -0.132043 0	0.029244 -0.137591 0	0.0424192 -0.146808 0	0.0536483 -0.159555 0	
0.062209 -0.175593 0	0.0673471 -0.194541 0	0.0683046 -0.215829 0	0.064375 -0.238649 0	0.0550021 -0.261916 0	
0.0624897 -0.284126 0	
-0.0252527 -0.25277 0	-0.0200899 -0.239904 0	-0.0285583 -0.225884 0	-0.0335211 -0.211695 0	-0.0352035 -0.198078 0	
-0.0339614 -0.185648 0	-0.0302282 -0.17489 0	-0.0244806 -0.166173 0	-0.0172154 -0.159761 0	-0.0089355 -0.15583 0	
-0.00014354 -0.154481 0	0.00865881 -0.155749 0	0.0169694 -0.159604 0	0.0242839 -0.16595 0	0.0300967 -0.174616 0	
0.0339071 -0.185344 0	0.0352329 -0.197767 0	0.0336343 -0.211402 0	0.0287479 -0.225634 0	0.0203411 -0.239721 0	
0.0255441 -0.252672 0	
-0.00349542 -0.228522 0	0.000102543 -0.221342 0	-0.0071121 -0.213132 0	-0.012064 -0.204565 0	-0.014844 -0.196136 0	
-0.0156385 -0.188282 0	-0.0147013 -0.18137 0	-0.0123341 -0.175694 0	-0.00887073 -0.171477 0	-0.00466519 -0.168876 0	
-8.28174e-05 -0.167983 0	0.00450582 -0.168829 0	0.00872976 -0.171386 0	0.0122225 -0.175564 0	0.0146282 -0.181212 0	
0.0156102 -0.188108 0	0.0148635 -0.195959 0	0.0121306 -0.2044 0	0.00722095 -0.212993 0	3.99004e-05 -0.221241 0	
0.00365951 -0.228468 0	
0.00882668 -0.209864 0	0.0113026 -0.206229 0	0.0052876 -0.201715 0	0.000721724 -0.196802 0	-0.00242643 -0.191822 0	
-0.00425529 -0.187074 0	-0.00491436 -0.182822 0	-0.00459341 -0.179285 0	-0.00351236 -0.176631 0	-0.00191227 -0.174985 0	
-4.75391e-05 -0.174418 0	0.00182088 -0.174957 0	0.0034318 -0.176578 0	0.00453004 -0.17921 0	0.00487333 -0.182732 0	
0.00424007 -0.186975 0	0.00243851 -0.191721 0	-0.000683064 -0.196709 0	-0.0052253 -0.201637 0	-0.0112217 -0.206173 0	
-0.00873381 -0.209834 0	
0.0151875 -0.195485 0	0.0168594 -0.194041 0	0.0119055 -0.191855 0	0.00786473 -0.189286 0	0.00473288 -0.186555 0	
0.00245935 -0.183866 0	0.00095676 -0.181401 0	0.000107172 -0.179317 0	-0.000231503 -0.177735 0	-0.000219118 -0.176747 0	
-2.7207e-05 -0.176406 0	0.000166853 -0.176731 0	0.000185523 -0.177705 0	-0.000143195 -0.179274 0	-0.00097991 -0.18135 0	
-0.00246769 -0.183809 0	-0.00472566 -0.186498 0	-0.00784245 -0.189233 0	-0.0118699 -0.191811 0	-0.0168134 -0.194009 0	
-0.0151348 -0.195469 0	
0.0178329 -0.184393 0	0.0189353 -0.184266 0	0.0148887 -0.183515 0	0.0114018 -0.182419 0	0.00848291 -0.181124 0	
0.00610846 -0.179766 0	0.00422896 -0.178471 0	0.00277276 -0.177346 0	0.00165028 -0.176477 0	0.00075828 -0.175928 0	
-1.55437e-05 -0.175738 0	-0.000788128 -0.175919 0	-0.0016765 -0.17646 0	-0.00279326 -0.177321 0	-0.00424206 -0.178441 0	
-0.0061131 -0.179734 0	-0.00847868 -0.181091 0	-0.011389 -0.182389 0	-0.0148683 -0.18349 0	-0.0189091 -0.184248 0	
-0.0178029 -0.184383 0	
0.0182301 -0.175831 0	0.0189352 -0.176459 0	0.0156505 -0.17656 0	0.0126936 -0.176359 0	0.0100785 -0.175953 0	
0.00779686 -0.175432 0	0.00582272 -0.17488 0	0.00411433 -0.17437 0	0.00261707 -0.173961 0	0.00126642 -0.173697 0	
-8.87154e-06 -0.173604 0	-0.00128345 -0.173692 0	-0.00263202 -0.173951 0	-0.004126 -0.174356 0	-0.00583016 -0.174863 0	
-0.00779946 -0.175414 0	-0.010076 -0.175934 0	-0.0126863 -0.176342 0	-0.0156389 -0.176546 0	-0.0189203 -0.176448 0	
-0.018213 -0.175826 0	
0.0173361 -0.169222 0	0.0177688 -0.170243 0	0.0151163 -0.170818 0	0.0126415 -0.171135 0	0.01036 -0.171255 0	
0.00827242 -0.171239 0	0.00636715 -0.171142 0	0.00462163 -0.171013 0	0.00300427 -0.17089 0	0.0014765 -0.170804 0	
-5.06057e-06 -0.170772 0	-0.00148621 -0.170801 0	-0.0030128 -0.170884 0	-0.00462827 -0.171004 0	-0.00637138 -0.171132 0	
-0.00827389 -0.171229 0	-0.0103586 -0.171245 0	-0.0126373 -0.171125 0	-0.0151097 -0.17081 0	-0.0177602 -0.170238 0	
-0.0173263 -0.169219 0	
0.0157674 -0.164122 0	0.016017 -0.16531 0	0.0138847 -0.166117 0	0.0118346 -0.166706 0	0.00988226 -0.167116 0	
0.00803312 -0.167387 0	0.00628419 -0.167553 0	0.00462505 -0.167647 0	0.00303906 -0.167694 0	0.0015047 -0.167714 0	
-2.8858e-06 -0.167719 0	-0.00151024 -0.167712 0	-0.00304392 -0.167691 0	-0.00462884 -0.167642 0	-0.00628659 -0.167547 0	
-0.00803395 -0.167381 0	-0.00988145 -0.16711 0	-0.0118322 -0.1667 0	-0.013881 -0.166112 0	-0.0160121 -0.165307 0	
-0.0157619 -0.16412 0	
0.0139134 -0.160187 0	0.0140426 -0.161405 0	0.0123354 -0.162293 0	0.0106513 -0.162999 0	0.00900507 -0.163548 0	
0.00740443 -0.163964 0	0.00585141 -0.164269 0	0.00434307 -0.164484 0	0.00287218 -0.164624 0	0.00142821 -0.164703 0	
-1.64537e-06 -0.164729 0	-0.00143137 -0.164702 0	-0.00287495 -0.164623 0	-0.00434522 -0.164481 0	-0.00585278 -0.164266 0	
-0.0074049 -0.163961 0	-0.0090046 -0.163545 0	-0.0106499 -0.162996 0	-0.0123332 -0.16229 0	-0.0140399 -0.161403 0	
-0.0139103 -0.160186 0	
0.0120114 -0.157153 0	0.0120639 -0.15832 0	0.0107017 -0.1592 0	0.00932801 -0.159929 0	0.00795602 -0.160523 0	
0.00659422 -0.160996 0	0.00524739 -0.161361 0	0.00391694 -0.161631 0	0.00260144 -0.161815 0	0.00129722 -0.161923 0	
-9.38047e-07 -0.161958 0	-0.00129902 -0.161922 0	-0.00260302 -0.161814 0	-0.00391817 -0.161629 0	-0.00524817 -0.161359 0	
-0.00659449 -0.160994 0	-0.00795575 -0.160521 0	-0.00932723 -0.159928 0	-0.0107005 -0.159198 0	-0.0120623 -0.158319 0	
-0.0120096 -0.157153 0	
0.0101988 -0.154815 0	0.0102041 -0.15589 0	0.00912072 -0.15671 0	0.00800691 -0.157408 0	0.00687423 -0.157991 0	
0.00573114 -0.158467 0	0.00458361 -0.158843 0	0.00343546 -0.159127 0	0.00228859 -0.159326 0	0.00114345 -0.159443 0	
-5.34774e-07 -0.159481 0	-0.00114448 -0.159442 0	-0.00228949 -0.159325 0	-0.00343616 -0.159126 0	-0.00458406 -0.158842 0	
-0.00573129 -0.158465 0	-0.00687408 -0.15799 0	-0.00800646 -0.157407 0	-0.00912002 -0.156709 0	-0.0102032 -0.155889 0	
-0.0101977 -0.154815 0	
0.00854764 -0.153014 0	0.00852575 -0.153978 0	0.00766657 -0.154715 0	0.00676813 -0.155352 0	0.00584036 -0.155893 0	
0.00489114 -0.156341 0	0.00392678 -0.156701 0	0.00295221 -0.156976 0	0.00197113 -0.15717 0	0.000986266 -0.157285 0	
-3.04867e-07 -0.157323 0	-0.000986851 -0.157285 0	-0.00197164 -0.15717 0	-0.00295261 -0.156976 0	-0.00392704 -0.1567 0	
-0.00489122 -0.15634 0	-0.00584028 -0.155892 0	-0.00676788 -0.155352 0	-0.00766617 -0.154714 0	-0.00852523 -0.153978 0	
-0.00854706 -0.153014 0	
0.00708911 -0.151628 0	0.00705302 -0.152477 0	0.00637341 -0.153122 0	0.00565196 -0.153685 0	0.00489704 -0.154169 0	
0.00411575 -0.154574 0	0.0033142 -0.154903 0	0.00249764 -0.155156 0	0.00167055 -0.155335 0	0.000836798 -0.155442 0	
-1.738e-07 -0.155478 0	-0.000837131 -0.155442 0	-0.00167085 -0.155335 0	-0.00249787 -0.155156 0	-0.00331435 -0.154902 0	
-0.0041158 -0.154574 0	-0.00489699 -0.154169 0	-0.00565181 -0.153685 0	-0.00637319 -0.153121 0	-0.00705273 -0.152477 0	
-0.00708878 -0.151628 0	
0.00582896 -0.150561 0	0.00578697 -0.151301 0	0.00525067 -0.151854 0	0.00467362 -0.152341 0	0.00406283 -0.152763 0	
0.00342449 -0.153119 0	0.00276424 -0.15341 0	0.00208719 -0.153635 0	0.00139798 -0.153795 0	0.000700875 -0.153891 0	
-9.90815e-08 -0.153923 0	-0.000701065 -0.153891 0	-0.00139814 -0.153795 0	-0.00208732 -0.153635 0	-0.00276433 -0.153409 0	
-0.00342452 -0.153119 0	-0.0040628 -0.152763 0	-0.00467354 -0.152341 0	-0.00525054 -0.151854 0	-0.0057868 -0.151301 0	
-0.00582877 -0.150561 0	
0.00475832 -0.14974 0	0.00471553 -0.150381 0	0.00429323 -0.150848 0	0.0038333 -0.151262 0	0.00334153 -0.151623 0	
0.00282325 -0.15193 0	0.00228346 -0.152181 0	0.00172688 -0.152376 0	0.00115797 -0.152516 0	0.000580959 -0.152599 0	
-5.64855e-08 -0.152627 0	-0.000581068 -0.152599 0	-0.00115806 -0.152516 0	-0.00172696 -0.152376 0	-0.00228351 -0.15218 0	
-0.00282327 -0.151929 0	-0.00334152 -0.151623 0	-0.00383325 -0.151262 0	-0.00429316 -0.150848 0	-0.00471544 -0.150381 0	
-0.00475821 -0.14974 0	
0.00386058 -0.149109 0	0.00381994 -0.149662 0	0.00348806 -0.150051 0	0.00312262 -0.150399 0	0.00272838 -0.150704 0	
0.00230982 -0.150963 0	0.00187131 -0.151177 0	0.00141705 -0.151343 0	0.000951114 -0.151463 0	0.000477459 -0.151534 0	
-3.22022e-08 -0.151558 0	-0.000477521 -0.151534 0	-0.000951168 -0.151463 0	-0.00141709 -0.151343 0	-0.00187134 -0.151176 0	
-0.00230983 -0.150963 0	-0.00272837 -0.150704 0	-0.00312259 -0.150399 0	-0.00348802 -0.150051 0	-0.00381988 -0.149662 0	
-0.00386052 -0.149109 0	
0.00311574 -0.148624 0	0.00307879 -0.149101 0	0.00281844 -0.149423 0	0.00252889 -0.149712 0	0.00221402 -0.149965 0	
0.00187758 -0.150182 0	0.00152329 -0.150361 0	0.00115479 -0.150501 0	0.00077571 -0.150602 0	0.000389598 -0.150663 0	
-1.83589e-08 -0.150683 0	-0.000389633 -0.150663 0	-0.000775741 -0.150602 0	-0.00115482 -0.150501 0	-0.0015233 -0.150361 0	
-0.00187759 -0.150182 0	-0.00221402 -0.149965 0	-0.00252887 -0.149712 0	-0.00281841 -0.149423 0	-0.00307875 -0.149101 0	
-0.0031157 -0.148624 0	
0.0025031 -0.148252 0	0.00247049 -0.148664 0	0.0022666 -0.148928 0	0.00203776 -0.149165 0	0.00178713 -0.149375 0	
0.0015178 -0.149554 0	0.00123289 -0.149703 0	0.00093554 -0.14982 0	0.000628863 -0.149903 0	0.000315977 -0.149954 0	
-1.04666e-08 -0.149971 0	-0.000315997 -0.149954 0	-0.000628881 -0.149903 0	-0.000935554 -0.149819 0	-0.0012329 -0.149703 0	
-0.0015178 -0.149554 0	-0.00178713 -0.149375 0	-0.00203775 -0.149165 0	-0.00226658 -0.148928 0	-0.00247048 -0.148664 0	
-0.00250308 -0.148252 0	
0.00200285 -0.147966 0	0.0019747 -0.148323 0	0.00181526 -0.148538 0	0.00163482 -0.148732 0	0.00143592 -0.148904 0	
0.00122109 -0.149051 0	0.000992926 -0.149174 0	0.000754073 -0.14927 0	0.000507184 -0.149339 0	0.000254931 -0.149381 0	
-5.96665e-09 -0.149395 0	-0.000254942 -0.149381 0	-0.000507194 -0.149339 0	-0.000754081 -0.14927 0	-0.000992931 -0.149174 0	
-0.00122109 -0.149051 0	-0.00143591 -0.148904 0	-0.00163482 -0.148732 0	-0.00181525 -0.148538 0	-0.00197469 -0.148323 0	
-0.00200283 -0.147966 0	
0.00159688 -0.147746 0	0.00157298 -0.148059 0	0.00144848 -0.148233 0	0.0013065 -0.14839 0	0.00114907 -0.14853 0	
0.000978264 -0.14865 0	0.000796215 -0.14875 0	0.000605121 -0.148829 0	0.000407211 -0.148885 0	0.000204745 -0.148919 0	
-3.40167e-09 -0.148931 0	-0.000204752 -0.148919 0	-0.000407217 -0.148885 0	-0.000605125 -0.148829 0	-0.000796218 -0.14875 0	
-0.000978265 -0.14865 0	-0.00114907 -0.14853 0	-0.0013065 -0.14839 0	-0.00144848 -0.148233 0	-0.00157298 -0.148059 0	
-0.00159688 -0.147746 0	
0.00126918 -0.147578 0	0.00124915 -0.147853 0	0.00115206 -0.147994 0	0.00104056 -0.148121 0	0.000916255 -0.148234 0	
0.000780836 -0.148331 0	0.00063605 -0.148412 0	0.000483705 -0.148476 0	0.000325655 -0.148522 0	0.000163784 -0.14855 0	
-1.93895e-09 -0.148559 0	-0.000163788 -0.14855 0	-0.000325658 -0.148522 0	-0.000483707 -0.148476 0	-0.000636051 -0.148412 0	
-0.000780836 -0.148331 0	-0.000916254 -0.148234 0	-0.00104055 -0.148121 0	-0.00115206 -0.147994 0	-0.00124914 -0.147853 0	
-0.00126918 -0.147578 0	
0.00100587 -0.147449 0	0.00098925 -0.147694 0	0.000913633 -0.147806 0	0.000826216 -0.147909 0	0.00072829 -0.148 0	
0.000621207 -0.148078 0	0.00050639 -0.148144 0	0.00038532 -0.148195 0	0.000259523 -0.148232 0	0.000130556 -0.148255 0	
-1.10506e-09 -0.148262 0	-0.000130558 -0.148255 0	-0.000259525 -0.148232 0	-0.000385322 -0.148195 0	-0.000506391 -0.148144 0	
-0.000621207 -0.148078 0	-0.000728289 -0.148 0	-0.000826215 -0.147909 0	-0.000913632 -0.147806 0	-0.000989248 -0.147694 0	
-0.00100586 -0.147449 0	
0.000795145 -0.14735 0	0.00078148 -0.14757 0	0.000722653 -0.14766 0	0.00065423 -0.147742 0	0.000577238 -0.147815 0	
0.00049276 -0.147878 0	0.000401948 -0.147931 0	0.000306005 -0.147972 0	0.000206177 -0.148002 0	0.000103742 -0.14802 0	
-6.30355e-10 -0.148026 0	-0.000103744 -0.14802 0	-0.000206178 -0.148002 0	-0.000306006 -0.147972 0	-0.000401948 -0.147931 0	
-0.00049276 -0.147878 0	-0.000577238 -0.147815 0	-0.00065423 -0.147742 0	-0.000722653 -0.14766 0	-0.000781479 -0.14757 0	
-0.000795144 -0.14735 0	
0.000627112 -0.147274 0	0.000615956 -0.147474 0	0.00057024 -0.147546 0	0.000516765 -0.147611 0	0.000456342 -0.14767 0	
0.00038984 -0.14772 0	0.000318183 -0.147762 0	0.000242346 -0.147795 0	0.000163339 -0.147819 0	8.22038e-05 -0.147834 0	
-3.59357e-10 -0.147839 0	-8.22045e-05 -0.147834 0	-0.00016334 -0.147819 0	-0.000242346 -0.147795 0	-0.000318184 -0.147762 0	
-0.00038984 -0.14772 0	-0.000456342 -0.14767 0	-0.000516764 -0.147611 0	-0.00057024 -0.147546 0	-0.000615956 -0.147474 0	
-0.000627111 -0.147274 0	
0.000493546 -0.147216 0	0.000484494 -0.1474 0	0.000449002 -0.147457 0	0.000407267 -0.147509 0	0.000359929 -0.147555 0	
0.000307679 -0.147596 0	0.000251259 -0.147629 0	0.000191452 -0.147656 0	0.000129075 -0.147675 0	6.49715e-05 -0.147687 0	
-2.04383e-10 -0.14769 0	-6.49719e-05 -0.147687 0	-0.000129076 -0.147675 0	-0.000191453 -0.147656 0	-0.000251259 -0.147629 0	
-0.000307679 -0.147596 0	-0.000359929 -0.147555 0	-0.000407266 -0.147509 0	-0.000449002 -0.147457 0	-0.000484493 -0.1474 0	
-0.000493545 -0.147216 0	
0.000387678 -0.147171 0	0.000380372 -0.147343 0	0.000352845 -0.147388 0	0.000320313 -0.147429 0	0.000283285 -0.147466 0	
0.000242307 -0.147498 0	0.000197971 -0.147525 0	0.000150905 -0.147546 0	0.000101766 -0.147561 0	5.12335e-05 -0.14757 0	
-1.15866e-10 -0.147573 0	-5.12337e-05 -0.14757 0	-0.000101767 -0.147561 0	-0.000150905 -0.147546 0	-0.000197971 -0.147525 0	
-0.000242307 -0.147498 0	-0.000283285 -0.147466 0	-0.000320313 -0.147429 0	-0.000352844 -0.147388 0	-0.000380372 -0.147343 0	
-0.000387678 -0.147171 0	
0.000303981 -0.147137 0	0.000298111 -0.147299 0	0.000276779 -0.147334 0	0.000251453 -0.147367 0	0.00022253 -0.147396 0	
0.000190445 -0.147421 0	0.000155668 -0.147442 0	0.0001187 -0.147459 0	8.0068e-05 -0.147471 0	4.03156e-05 -0.147479 0	
-6.64863e-11 -0.147481 0	-4.03157e-05 -0.147479 0	-8.00681e-05 -0.147471 0	-0.0001187 -0.147459 0	-0.000155668 -0.147442 0	
-0.000190445 -0.147421 0	-0.00022253 -0.147396 0	-0.000251453 -0.147367 0	-0.000276779 -0.147334 0	-0.000298111 -0.147299 0	
-0.000303981 -0.147137 0	
0.000237964 -0.147111 0	0.000233267 -0.147265 0	0.000216751 -0.147293 0	0.000197056 -0.147318 0	0.000174495 -0.147341 0	
0.000149411 -0.147361 0	0.000122177 -0.147378 0	9.31924e-05 -0.147391 0	6.28761e-05 -0.147401 0	3.16634e-05 -0.147407 0	
-3.82005e-11 -0.147409 0	-3.16635e-05 -0.147407 0	-6.28761e-05 -0.147401 0	-9.31924e-05 -0.147391 0	-0.000122177 -0.147378 0	
-0.000149411 -0.147361 0	-0.000174495 -0.147341 0	-0.000197056 -0.147318 0	-0.000216751 -0.147293 0	-0.000233267 -0.147265 0	
-0.000237964 -0.147111 0	
0.000186003 -0.147091 0	0.000182258 -0.147238 0	0.00016948 -0.14726 0	0.000154181 -0.147281 0	0.000136604 -0.147299 0	
0.000117022 -0.147314 0	9.57278e-05 -0.147328 0	7.3039e-05 -0.147338 0	4.9289e-05 -0.147346 0	2.48242e-05 -0.14735 0	
-2.16241e-11 -0.147352 0	-2.48243e-05 -0.14735 0	-4.9289e-05 -0.147346 0	-7.3039e-05 -0.147338 0	-9.57278e-05 -0.147328 0	
-0.000117022 -0.147314 0	-0.000136604 -0.147299 0	-0.000154181 -0.147281 0	-0.00016948 -0.14726 0	-0.000182258 -0.147238 0	
-0.000186003 -0.147091 0	
0.000145184 -0.147076 0	0.000142207 -0.147218 0	0.000132329 -0.147235 0	0.000120456 -0.147251 0	0.000106779 -0.147265 0	
9.15115e-05 -0.147278 0	7.48856e-05 -0.147288 0	5.71521e-05 -0.147296 0	3.85754e-05 -0.147302 0	1.94306e-05 -0.147306 0	
-1.23854e-11 -0.147307 0	-1.94306e-05 -0.147306 0	-3.85754e-05 -0.147302 0	-5.71521e-05 -0.147296 0	-7.48857e-05 -0.147288 0	
-9.15115e-05 -0.147278 0	-0.000106779 -0.147265 0	-0.000120456 -0.147251 0	-0.000132329 -0.147235 0	-0.000142207 -0.147218 0	
-0.000145184 -0.147076 0	
0.000113175 -0.147064 0	0.000110815 -0.147202 0	0.000103184 -0.147216 0	9.39789e-05 -0.147228 0	8.33481e-05 -0.147239 0	
7.14591e-05 -0.147249 0	5.84952e-05 -0.147257 0	4.46542e-05 -0.147264 0	3.01451e-05 -0.147268 0	1.51859e-05 -0.147271 0	
-6.92889e-12 -0.147272 0	-1.51859e-05 -0.147271 0	-3.01452e-05 -0.147268 0	-4.46542e-05 -0.147264 0	-5.84952e-05 -0.147257 0	
-7.14591e-05 -0.147249 0	-8.33481e-05 -0.147239 0	-9.39788e-05 -0.147228 0	-0.000103184 -0.147216 0	-0.000110815 -0.147202 0	
-0.000113175 -0.147064 0	
8.81134e-05 -0.147055 0	8.62484e-05 -0.14719 0	8.03577e-05 -0.147201 0	7.32267e-05 -0.147211 0	6.49723e-05 -0.147219 0	
5.57251e-05 -0.147227 0	4.56293e-05 -0.147233 0	3.48407e-05 -0.147238 0	2.35241e-05 -0.147242 0	1.18516e-05 -0.147244 0	
-3.97462e-12 -0.147245 0	-1.18516e-05 -0.147244 0	-2.35241e-05 -0.147242 0	-3.48407e-05 -0.147238 0	-4.56293e-05 -0.147233 0	
-5.57251e-05 -0.147227 0	-6.49723e-05 -0.147219 0	-7.32267e-05 -0.147211 0	-8.03577e-05 -0.147201 0	-8.62484e-05 -0.14719 0	
-8.81134e-05 -0.147055 0	
6.85213e-05 -0.147049 0	6.70505e-05 -0.147181 0	6.25062e-05 -0.147189 0	5.69872e-05 -0.147197 0	5.05843e-05 -0.147204 0	
4.33999e-05 -0.14721 0	3.5547e-05 -0.147215 0	2.71481e-05 -0.147219 0	1.83329e-05 -0.147221 0	9.23712e-06 -0.147223 0	
-2.45347e-12 -0.147224 0	-9.23712e-06 -0.147223 0	-1.83329e-05 -0.147221 0	-2.71481e-05 -0.147219 0	-3.5547e-05 -0.147215 0	
-4.33999e-05 -0.14721 0	-5.05843e-05 -0.147204 0	-5.69872e-05 -0.147197 0	-6.25062e-05 -0.147189 0	-6.70505e-05 -0.147181 0	
-6.85213e-05 -0.147049 0	
5.32253e-05 -0.147043 0	5.2068e-05 -0.147174 0	4.85647e-05 -0.14718 0	4.42968e-05 -0.147186 0	3.9335e-05 -0.147191 0	
3.37592e-05 -0.147196 0	2.7658e-05 -0.1472 0	2.11273e-05 -0.147203 0	1.42692e-05 -0.147205 0	7.19019e-06 -0.147207 0	
-1.5931e-12 -0.147207 0	-7.19019e-06 -0.147207 0	-1.42692e-05 -0.147205 0	-2.11273e-05 -0.147203 0	-2.7658e-05 -0.1472 0	
-3.37592e-05 -0.147196 0	-3.9335e-05 -0.147191 0	-4.42968e-05 -0.147186 0	-4.85647e-05 -0.14718 0	-5.2068e-05 -0.147174 0	
-5.32253e-05 -0.147043 0	
4.12977e-05 -0.147039 0	4.03889e-05 -0.147168 0	3.76901e-05 -0.147173 0	3.43925e-05 -0.147178 0	3.05512e-05 -0.147182 0	
2.62284e-05 -0.147186 0	2.14935e-05 -0.147189 0	1.64215e-05 -0.147191 0	1.10924e-05 -0.147193 0	5.58986e-06 -0.147194 0	
-4.56651e-13 -0.147194 0	-5.58986e-06 -0.147194 0	-1.10924e-05 -0.147193 0	-1.64215e-05 -0.147191 0	-2.14935e-05 -0.147189 0	
-2.62284e-05 -0.147186 0	-3.05512e-05 -0.147182 0	-3.43925e-05 -0.147178 0	-3.76901e-05 -0.147173 0	-4.03889e-05 -0.147168 0	
-4.12977e-05 -0.147039 0	
3.20065e-05 -0.147036 0	3.12942e-05 -0.147164 0	2.92167e-05 -0.147168 0	2.66712e-05 -0.147172 0	2.37003e-05 -0.147175 0	
2.03527e-05 -0.147178 0	1.66823e-05 -0.14718 0	1.27478e-05 -0.147182 0	8.61199e-06 -0.147183 0	4.34022e-06 -0.147184 0	
-8.71939e-13 -0.147184 0	-4.34022e-06 -0.147184 0	-8.61199e-06 -0.147183 0	-1.27478e-05 -0.147182 0	-1.66823e-05 -0.14718 0	
-2.03527e-05 -0.147178 0	-2.37003e-05 -0.147175 0	-2.66712e-05 -0.147172 0	-2.92167e-05 -0.147168 0	-3.12942e-05 -0.147164 0	
-3.20065e-05 -0.147036 0	
2.4775e-05 -0.147034 0	2.42179e-05 -0.147161 0	2.26201e-05 -0.147164 0	2.06571e-05 -0.147167 0	1.8362e-05 -0.147169 0	
1.57726e-05 -0.147171 0	1.29309e-05 -0.147173 0	9.88285e-06 -0.147175 0	6.67729e-06 -0.147176 0	3.36542e-06 -0.147176 0	
-2.98024e-13 -0.147177 0	-3.36542e-06 -0.147176 0	-6.67729e-06 -0.147176 0	-9.88285e-06 -0.147175 0	-1.29309e-05 -0.147173 0	
-1.57726e-05 -0.147171 0	-1.8362e-05 -0.147169 0	-2.06571e-05 -0.147167 0	-2.26201e-05 -0.147164 0	-2.42179e-05 -0.147161 0	
-2.4775e-05 -0.147034 0	
1.91501e-05 -0.147032 0	1.87153e-05 -0.147158 0	1.74877e-05 -0.147161 0	1.59757e-05 -0.147163 0	1.4205e-05 -0.147165 0	
1.22049e-05 -0.147167 0	1.0008e-05 -0.147168 0	7.65012e-06 -0.147169 0	5.16933e-06 -0.14717 0	2.60556e-06 -0.14717 0	
-2.68948e-13 -0.147171 0	-2.60556e-06 -0.14717 0	-5.16933e-06 -0.14717 0	-7.65012e-06 -0.147169 0	-1.0008e-05 -0.147168 0	
-1.22049e-05 -0.147167 0	-1.4205e-05 -0.147165 0	-1.59757e-05 -0.147163 0	-1.74877e-05 -0.147161 0	-1.87153e-05 -0.147158 0	
-1.91501e-05 -0.147032 0	
1.47757e-05 -0.147031 0	1.44372e-05 -0.147156 0	1.34954e-05 -0.147158 0	1.23328e-05 -0.14716 0	1.09689e-05 -0.147161 0	
9.42665e-06 -0.147163 0	7.73132e-06 -0.147164 0	5.91069e-06 -0.147165 0	3.99437e-06 -0.147165 0	2.01346e-06 -0.147166 0	
-4.44554e-13 -0.147166 0	-2.01346e-06 -0.147166 0	-3.99437e-06 -0.147165 0	-5.91069e-06 -0.147165 0	-7.73133e-06 -0.147164 0	
-9.42665e-06 -0.147163 0	-1.09689e-05 -0.147161 0	-1.23328e-05 -0.14716 0	-1.34954e-05 -0.147158 0	-1.44372e-05 -0.147156 0	
-1.47757e-05 -0.147031 0	
1.13726e-05 -0.14703 0	1.11098e-05 -0.147155 0	1.03889e-05 -0.147156 0	9.49689e-06 -0.147158 0	8.44893e-06 -0.147159 0	
7.26258e-06 -0.14716 0	5.95752e-06 -0.147161 0	4.55521e-06 -0.147161 0	3.07866e-06 -0.147162 0	1.55196e-06 -0.147162 0	
8.06278e-14 -0.147162 0	-1.55196e-06 -0.147162 0	-3.07866e-06 -0.147162 0	-4.55521e-06 -0.147161 0	-5.95752e-06 -0.147161 0	
-7.26258e-06 -0.14716 0	-8.44893e-06 -0.147159 0	-9.49689e-06 -0.147158 0	-1.03889e-05 -0.147156 0	-1.11098e-05 -0.147155 0	
-1.13726e-05 -0.14703 0	
8.72172e-06 -0.147029 0	8.51857e-06 -0.147154 0	7.96862e-06 -0.147155 0	7.28658e-06 -0.147156 0	6.48416e-06 -0.147157 0	
5.57487e-06 -0.147158 0	4.57386e-06 -0.147158 0	3.4977e-06 -0.147159 0	2.36415e-06 -0.147159 0	1.19184e-06 -0.14716 0	
3.3213e-13 -0.14716 0	-1.19184e-06 -0.14716 0	-2.36415e-06 -0.147159 0	-3.4977e-06 -0.147159 0	-4.57386e-06 -0.147158 0	
-5.57487e-06 -0.147158 0	-6.48416e-06 -0.147157 0	-7.28658e-06 -0.147156 0	-7.96862e-06 -0.147155 0	-8.51857e-06 -0.147154 0	
-8.72172e-06 -0.147029 0	
6.65116e-06 -0.147029 0	6.49504e-06 -0.147153 0	6.07777e-06 -0.147154 0	5.55917e-06 -0.147155 0	4.94818e-06 -0.147155 0	
4.25515e-06 -0.147156 0	3.49167e-06 -0.147157 0	2.67047e-06 -0.147157 0	1.80517e-06 -0.147157 0	9.10092e-07 -0.147157 0	
2.1555e-13 -0.147158 0	-9.10093e-07 -0.147157 0	-1.80517e-06 -0.147157 0	-2.67047e-06 -0.147157 0	-3.49167e-06 -0.147157 0	
-4.25515e-06 -0.147156 0	-4.94819e-06 -0.147155 0	-5.55917e-06 -0.147155 0	-6.07777e-06 -0.147154 0	-6.49504e-06 -0.147153 0	
-6.65116e-06 -0.147029 0	
5.02562e-06 -0.147028 0	4.90675e-06 -0.147152 0	4.59305e-06 -0.147153 0	4.20233e-06 -0.147154 0	3.74138e-06 -0.147154 0	
3.218e-06 -0.147155 0	2.64104e-06 -0.147155 0	2.02015e-06 -0.147155 0	1.36569e-06 -0.147156 0	6.8856e-07 -0.147156 0	
4.08312e-13 -0.147156 0	-6.8856e-07 -0.147156 0	-1.36569e-06 -0.147156 0	-2.02015e-06 -0.147155 0	-2.64104e-06 -0.147155 0	
-3.218e-06 -0.147155 0	-3.74138e-06 -0.147154 0	-4.20233e-06 -0.147154 0	-4.59305e-06 -0.147153 0	-4.90675e-06 -0.147152 0	
-5.02562e-06 -0.147028 0	
3.7382e-06 -0.147028 0	3.64907e-06 -0.147152 0	3.41697e-06 -0.147152 0	3.12724e-06 -0.147153 0	2.78491e-06 -0.147153 0	
2.39584e-06 -0.147154 0	1.96662e-06 -0.147154 0	1.50448e-06 -0.147154 0	1.01717e-06 -0.147155 0	5.1287e-07 -0.147155 0	
2.65378e-13 -0.147155 0	-5.1287e-07 -0.147155 0	-1.01717e-06 -0.147155 0	-1.50448e-06 -0.147154 0	-1.96662e-06 -0.147154 0	
-2.39584e-06 -0.147154 0	-2.78491e-06 -0.147153 0	-3.12724e-06 -0.147153 0	-3.41697e-06 -0.147152 0	-3.64907e-06 -0.147152 0	
-3.7382e-06 -0.147028 0	
2.70375e-06 -0.147028 0	2.63865e-06 -0.147151 0	2.47185e-06 -0.147152 0	2.26306e-06 -0.147152 0	2.01594e-06 -0.147153 0	
1.73474e-06 -0.147153 0	1.42424e-06 -0.147153 0	1.08972e-06 -0.147154 0	7.36836e-07 -0.147154 0	3.71545e-07 -0.147154 0	
1.92702e-13 -0.147154 0	-3.71545e-07 -0.147154 0	-7.36836e-07 -0.147154 0	-1.08972e-06 -0.147154 0	-1.42424e-06 -0.147153 0	
-1.73474e-06 -0.147153 0	-2.01594e-06 -0.147153 0	-2.26306e-06 -0.147152 0	-2.47185e-06 -0.147152 0	-2.63865e-06 -0.147151 0	
-2.70375e-06 -0.147028 0	
1.85352e-06 -0.147027 0	1.80825e-06 -0.147151 0	1.69497e-06 -0.147152 0	1.55261e-06 -0.147152 0	1.38368e-06 -0.147152 0	
1.1911e-06 -0.147153 0	9.7819e-07 -0.147153 0	7.48605e-07 -0.147153 0	5.06266e-07 -0.147153 0	2.55306e-07 -0.147153 0	
3.8134e-15 -0.147153 0	-2.55306e-07 -0.147153 0	-5.06266e-07 -0.147153 0	-7.48605e-07 -0.147153 0	-9.7819e-07 -0.147153 0	
-1.1911e-06 -0.147153 0	-1.38368e-06 -0.147152 0	-1.55261e-06 -0.147152 0	-1.69497e-06 -0.147152 0	-1.80825e-06 -0.147151 0	
-1.85352e-06 -0.147027 0	
1.13083e-06 -0.147027 0	1.10241e-06 -0.147151 0	1.03461e-06 -0.147151 0	9.48703e-07 -0.147152 0	8.46221e-07 -0.147152 0	
7.28974e-07 -0.147152 0	5.9902e-07 -0.147152 0	4.58632e-07 -0.147153 0	3.10261e-07 -0.147153 0	1.56492e-07 -0.147153 0	
5.99467e-13 -0.147153 0	-1.56492e-07 -0.147153 0	-3.10262e-07 -0.147153 0	-4.58632e-07 -0.147153 0	-5.9902e-07 -0.147152 0	
-7.28974e-07 -0.147152 0	-8.46221e-07 -0.147152 0	-9.48702e-07 -0.147152 0	-1.03461e-06 -0.147151 0	-1.10241e-06 -0.147151 0	
-1.13083e-06 -0.147027 0	
4.87491e-07 -0.147027 0	4.73996e-07 -0.147151 0	4.46799e-07 -0.147151 0	4.11226e-07 -0.147152 0	3.67951e-07 -0.147152 0	
3.17787e-07 -0.147152 0	2.61674e-07 -0.147152 0	2.00663e-07 -0.147152 0	1.35898e-07 -0.147152 0	6.85903e-08 -0.147153 0	
3.29156e-13 -0.147153 0	-6.85903e-08 -0.147153 0	-1.35898e-07 -0.147152 0	-2.00663e-07 -0.147152 0	-2.61673e-07 -0.147152 0	
-3.17787e-07 -0.147152 0	-3.67952e-07 -0.147152 0	-4.11226e-07 -0.147152 0	-4.46798e-07 -0.147151 0	-4.73996e-07 -0.147151 0	
-4.8749e-07 -0.147027 0	
-1.19256e-07 -0.147027 0	-1.18831e-07 -0.147151 0	-1.07488e-07 -0.147151 0	-9.54064e-08 -0.147152 0	-8.27302e-08 -0.147152 0	
-6.95811e-08 -0.147152 0	-5.60639e-08 -0.147152 0	-4.22717e-08 -0.147152 0	-2.82842e-08 -0.147152 0	-1.41724e-08 -0.147152 0	
1.84956e-13 -0.147152 0	1.41725e-08 -0.147152 0	2.82838e-08 -0.147152 0	4.22716e-08 -0.147152 0	5.60642e-08 -0.147152 0	
6.95814e-08 -0.147152 0	8.27304e-08 -0.147152 0	9.54067e-08 -0.147152 0	1.07488e-07 -0.147151 0	1.18832e-07 -0.147151 0	
1.19256e-07 -0.147027 0	
-7.29459e-07 -0.147027 0	-7.1527e-07 -0.147151 0	-6.64775e-07 -0.147151 0	-6.04488e-07 -0.147152 0	-5.3537e-07 -0.147152 0	
-4.58472e-07 -0.147152 0	-3.74947e-07 -0.147152 0	-2.86022e-07 -0.147152 0	-1.92988e-07 -0.147152 0	-9.7189e-08 -0.147153 0	
3.33549e-13 -0.147153 0	9.71893e-08 -0.147153 0	1.92988e-07 -0.147152 0	2.86022e-07 -0.147152 0	3.74947e-07 -0.147152 0	
4.58473e-07 -0.147152 0	5.3537e-07 -0.147152 0	6.04488e-07 -0.147152 0	6.64775e-07 -0.147151 0	7.1527e-07 -0.147151 0	
7.29459e-07 -0.147027 0	
-1.38293e-06 -0.147027 0	-1.35431e-06 -0.147151 0	-1.26136e-06 -0.147151 0	-1.14908e-06 -0.147152 0	-1.01928e-06 -0.147152 0	
-8.7402e-07 -0.147152 0	-7.15547e-07 -0.147152 0	-5.46287e-07 -0.147153 0	-3.68813e-07 -0.147153 0	-1.858e-07 -0.147153 0	
1.32091e-13 -0.147153 0	1.858e-07 -0.147153 0	3.68813e-07 -0.147153 0	5.46288e-07 -0.147153 0	7.15547e-07 -0.147152 0	
8.7402e-07 -0.147152 0	1.01928e-06 -0.147152 0	1.14908e-06 -0.147152 0	1.26136e-06 -0.147151 0	1.35431e-06 -0.147151 0	
1.38293e-06 -0.147027 0	
-2.12167e-06 -0.147027 0	-2.07713e-06 -0.147151 0	-1.93554e-06 -0.147152 0	-1.764e-06 -0.147152 0	-1.56532e-06 -0.147152 0	
-1.34265e-06 -0.147153 0	-1.09948e-06 -0.147153 0	-8.39566e-07 -0.147153 0	-5.66889e-07 -0.147153 0	-2.8561e-07 -0.147153 0	
-4.71389e-13 -0.147153 0	2.8561e-07 -0.147153 0	5.6689e-07 -0.147153 0	8.39567e-07 -0.147153 0	1.09948e-06 -0.147153 0	