# vtk DataFile Version 2.0
Titre
ASCII
DATASET STRUCTURED_POINTS
DIMENSIONS 21 101 1
ORIGIN 0.0 0.0 0.0
SPACING 0.005 0.01 0.0
POINT_DATA 2121 
VECTORS velocity float

2.27951e+56 -2.67464e+56 0	2.21503e+41 -2.59899e+41 0	2.14301e+26 -2.51449e+26 0	3.18598e+29 -3.73824e+29 0	6.13888e+14 -7.20299e+14 0	
9173.35 26471.6 0	16545.1 36138.7 0	26086.2 49174.6 0	39399.1 65554.4 0	57399.8 84860.6 0	
87344.8 112391 0	130764 143429 0	216787 194753 0	364107 249855 0	798469 372186 0	
2.53121e+06 562193 0	1.55234e+08 4.07696e+07 0	6.58753e+26 1.97272e+26 0	3.35835e+45 1.0057e+45 0	1.7121e+64 5.1271e+63 0	
8.72819e+82 2.61376e+82 0	
-2.20948e+62 2.59248e+62 0	7.84947e+54 -9.21009e+54 0	3.74826e+39 -4.39799e+39 0	1.32278e+45 -1.55207e+45 0	1.27439e+30 -1.49529e+30 0	
1.22778e+15 -1.4406e+15 0	33481.9 90614.4 0	68071.3 99398.7 0	88764.1 114157 0	123304 133949 0	
162055 147415 0	203445 153961 0	85182.2 40321.6 0	-836547 -376929 0	-6.66197e+06 -1.71848e+06 0	
-3.8635e+07 -7.23328e+06 0	-5.16773e+22 -1.54754e+22 0	-2.63448e+41 -7.88928e+40 0	-1.34304e+60 -4.02191e+59 0	-4.94792e+53 -1.48171e+53 0	
-2.52685e+72 -7.56698e+71 0	
-5.32168e+46 6.24413e+46 0	-9.80775e+44 1.15078e+45 0	-9.44898e+29 1.10869e+30 0	3.18598e+29 -3.73824e+29 0	-1.15352e+18 1.35347e+18 0	
78684.1 195715 0	118350 56247.4 0	120069 72022.3 0	152770 84433 0	179605 81391 0	
208737 72277.7 0	242324 57255.6 0	372206 95614.8 0	1.10253e+06 367899 0	4.73851e+06 1.02408e+06 0	
1.93627e+07 3.53535e+06 0	1.02505e+08 2.56582e+07 0	4.66646e+24 1.39743e+24 0	-6.5862e+40 -1.97232e+40 0	1.44987e+50 4.34181e+49 0	
-1.23915e+53 -3.7108e+52 0	
-1.28175e+31 1.50393e+31 0	-2.36225e+29 2.77172e+29 0	-4.55394e+14 5.3426e+14 0	7.6736e+13 -9.00373e+13 0	64462.7 -40889.5 0	
74303.8 -24259.1 0	87461 -22160.5 0	101329 -25657.8 0	115578 -33287.2 0	129760 -45465.6 0	
142807 -63134.4 0	153370 -87424.6 0	159312 -119841 0	157687 -162685 0	142621 -221939 0	
88062.6 -324970 0	-283502 -576733 0	-3.23573e+06 184679 0	-3.22983e+21 -9.67213e+20 0	7.11007e+30 2.1292e+30 0	
-6.07674e+33 -1.81975e+33 0	
-3.09001e+15 3.62127e+15 0	-5.68959e+13 6.67582e+13 0	-4.17906e+06 182960 0	143868 -82522.6 0	59273.4 -17108.2 0	
63273.1 -23181.9 0	67365.6 -29879 0	72057.3 -37935.4 0	76636.1 -48135.2 0	80168.6 -61091.9 0	
81497.2 -77248.3 0	79109.9 -96866.6 0	70980.7 -119770 0	54485.5 -144878 0	26722.3 -169061 0	
-13183.5 -185586 0	-62773.2 -185051 0	406771 -91998.6 0	-1.92182e+07 -6.10603e+06 0	3.48607e+11 1.04429e+11 0	
-2.97999e+14 -8.92397e+13 0	
17489.5 1421.96 0	-23219.4 -20158.5 0	180936 28850.1 0	-26313.9 -24427.4 0	74213.5 -14965.4 0	
50246.6 -23468.9 0	54163.2 -30552.8 0	54603.6 -38619.6 0	54386.9 -47946.7 0	52733 -58690.6 0	
48839.1 -70827.6 0	41776.4 -84035.5 0	30578.2 -97541.5 0	14447.2 -109950 0	-7362.77 -119064 0	
-8821.2 -124528 0	-386142 -125396 0	1.59617e+06 60476.6 0	-3.44184e+06 -596219 0	1.47262e+06 288772 0	
-188679 -66058.2 0	
13004 -794.272 0	28976.5 -2249.12 0	57411.9 -7291.71 0	26840.5 -9595.64 0	56682.7 -17183.7 0	
40390.1 -22830.3 0	43095.5 -29174.6 0	41263 -36025.2 0	38838 -43481.9 0	35069.1 -51485.4 0	
29526.5 -59841.7 0	21767.2 -68160.1 0	11429 -75804.7 0	-1647.52 -81886.1 0	-17986.7 -85361.8 0	
-28888.2 -85059.2 0	-82226.1 -78411.5 0	-24669.6 -68726.8 0	-138278 -46559 0	-68347.1 -29953 0	
-42982.4 -11164.6 0	
13180.6 -1161.56 0	28369.1 -3130.63 0	44885.8 -7191.66 0	28276.5 -10449 0	43947.1 -16400.5 0	
32954.6 -21304.8 0	33551 -26515.1 0	30906.8 -31925.2 0	27677.3 -37515.1 0	23393.5 -43165 0	
17851.3 -48673.4 0	10868.8 -53733.4 0	2339.58 -57922.4 0	-7718.02 -60718 0	-19520.8 -61541.2 0	
-28411.6 -59722.4 0	-56325.7 -55111.5 0	-44518.4 -42998.2 0	-80131 -33337.7 0	-60207.3 -17389.5 0	
-29265.8 -6434.96 0	
13292.6 -1364.57 0	26940.2 -3641.43 0	34179 -7064.09 0	27622.9 -10490.4 0	32855.3 -15087.9 0	
26570.6 -19086 0	25714.5 -23181.1 0	22949.5 -27277 0	19666.9 -31315.6 0	15624 -35181.6 0	
10738.3 -38714.7 0	4953.39 -41702.2 0	-1732.81 -43880.4 0	-9248.76 -44947.4 0	-17646.4 -44587.2 0	
-24469.5 -42454.5 0	-40218.5 -38455.5 0	-39159 -30376.6 0	-55003.3 -22489.2 0	-46999.1 -12400.2 0	
-23754.1 -4707.37 0	
12986.5 -1463.38 0	24013.9 -3786.29 0	26316.8 -6716.51 0	24431.2 -9899.76 0	24304 -13352.4 0	
21030.3 -16509.5 0	19465.3 -19635.4 0	16918.8 -22657.5 0	13947.6 -25512.8 0	10452.2 -28109.8 0	
6410.98 -30333.5 0	1824.55 -32044.7 0	-3270.25 -33084.2 0	-8793.21 -33281.7 0	-14701.6 -32469.3 0	
-19956.1 -30482.1 0	-28135.2 -27270.1 0	-31938 -22051.8 0	-37903.1 -16040 0	-36490.7 -9435.86 0	
-20079.7 -3699.15 0	
12236.3 -1471.19 0	20236.4 -3650.89 0	20812.5 -6169.42 0	19700.8 -8819.82 0	18169.7 -11412.7 0	
16305.2 -13853.4 0	14603.4 -16199.3 0	12410.2 -18397.9 0	9889.88 -20395.4 0	7015.93 -22124.7 0	
3795.26 -23507.7 0	251.432 -24456.6 0	-3568.96 -24877.8 0	-7593.94 -24678.2 0	-11751.1 -23772.7 0	
-15670.8 -22090.3 0	-20066.3 -19609.8 0	-24078.1 -16150 0	-27334.3 -11881.4 0	-27739.7 -7267.9 0	
-17022.5 -2967.41 0	
11128.6 -1402.97 0	16476.7 -3336.35 0	16271.3 -5425.28 0	15094.6 -7498.71 0	13765.3 -9467.55 0	
12428.2 -11330 0	10894.3 -13075.8 0	9080.84 -14666.6 0	7027.06 -16061 0	4736.72 -17211.9 0	
2228.15 -18067.8 0	-468.85 -18574.8 0	-3310.34 -18679.1 0	-6237.76 -18331.5 0	-9183.96 -17491.5 0	
-12013.4 -16132.3 0	-14729.1 -14251.9 0	-17465.2 -11836.5 0	-19919.3 -8893.27 0	-20885.9 -5613.79 0	
-14299.5 -2389.33 0	
9795.07 -1279.37 0	13014.5 -2911.17 0	12406.3 -4569 0	11424.7 -6159.68 0	10453.9 -7663.73 0	
9376.54 -9074.61 0	8103.76 -10370 0	6644.77 -11521.4 0	5013.91 -12498.4 0	3224.73 -13268.9 0	
1298.32 -13799.6 0	-736.774 -14057.6 0	-2843.57 -14013 0	-4976.83 -13640.4 0	-7084.65 -12922.3 0	
-9101.05 -11851.6 0	-10956.8 -10435 0	-12697.3 -8690.13 0	-14405.1 -6632.13 0	-15547.5 -4313.27 0	
-11848.1 -1916.12 0	
8351.49 -1120.36 0	9995.18 -2436.69 0	9346.04 -3718.09 0	8647.46 -4936.25 0	7911.81 -6084.83 0	
7040.43 -7149.67 0	6022.85 -8110.85 0	4871.48 -8947.2 0	3598.22 -9636.95 0	2218.37 -10158.2 0	
751.725 -10489.6 0	-777.197 -10611.6 0	-2338.95 -10507.5 0	-3899.55 -10164.9 0	-5421.21 -9577.46 0	
-6862.72 -8746.07 0	-8177.12 -7680.32 0	-9341.66 -6398.84 0	-10437.1 -4924.06 0	-11418.3 -3278.41 0	
-9646.87 -1521.38 0	
6906.37 -945.424 0	7531.87 -1971.67 0	7034.59 -2953.01 0	6543.2 -3885.67 0	5967.46 -4760.34 0	
5276.96 -5562.65 0	4478.63 -6276.94 0	3582.3 -6887.5 0	2599.36 -7378.82 0	1543.94 -7736.07 0	
433.038 -7945.59 0	-713.416 -7995.61 0	-1872.66 -7877.08 0	-3019.48 -7584.42 0	-4126.76 -7116.37 0	
-5166.28 -6476.71 0	-6108.83 -5674.83 0	-6927.14 -4725.95 0	-7636.28 -3649.9 0	-8320.87 -2466.23 0	
-7702.31 -1191.54 0	
5556.45 -772.375 0	5629.2 -1556.52 0	5305.59 -2306.53 0	4943.03 -3019.02 0	4492.3 -3683.28 0	
3953.77 -4287.34 0	3334.69 -4819.23 0	2643.51 -5267.3 0	1890.41 -5620.53 0	1087.44 -5868.81 0	
248.492 -6003.32 0	-610.715 -6016.99 0	-1472.85 -5905 0	-2319.29 -5665.18 0	-3130.54 -5298.49 0	
-3886.81 -4809.34 0	-4568.64 -4205.84 0	-5157.21 -3499.83 0	-5641.46 -2706.48 0	-6065.77 -1842.83 0	
-6033.82 -919.872 0	
4342.56 -613.252 0	4207.97 -1208.39 0	4005.84 -1780.88 0	3728.32 -2323.53 0	3379 -2826.91 0	
2963.2 -3281.59 0	2486.95 -3678.45 0	1957.53 -4008.9 0	1383.49 -4265.04 0	774.697 -4439.92 0	
142.194 -4527.8 0	-501.848 -4524.4 0	-1144.34 -4427.21 0	-1771.51 -4235.72 0	-2369.26 -3951.67 0	
-2923.54 -3579.21 0	-3420.82 -3124.94 0	-3848.51 -2597.94 0	-4194.93 -2009.48 0	-4450.96 -1372.67 0	
-4621.57 -699.737 0	
3279.66 -474.389 0	3178.17 -928.009 0	3023.02 -1363.93 0	2809.37 -1776.12 0	2540.91 -2156.97 0	
2222.01 -2499.17 0	1857.74 -2795.82 0	1454.14 -3040.55 0	1018.15 -3227.68 0	557.629 -3352.39 0	
81.2095 -3410.88 0	-401.78 -3400.52 0	-881.484 -3320.06 0	-1347.72 -3169.75 0	-1790.21 -2951.45 0	
-2198.88 -2668.7 0	-2564.12 -2326.75 0	-2877.13 -1932.48 0	-3129.95 -1494.27 0	-3315.69 -1021.82 0	
-3437.45 -524.068 0	
2474.2 -363.034 0	2398.09 -707.601 0	2279.39 -1038.7 0	2115.86 -1351.12 0	1910.65 -1638.91 0	
1667.24 -1896.44 0	1389.78 -2118.51 0	1083.14 -2300.4 0	752.828 -2437.98 0	404.997 -2527.88 0	
46.3212 -2567.52 0	-316.095 -2555.29 0	-674.847 -2490.59 0	-1022.38 -2373.97 0	-1351.16 -2207.13 0	
-1653.88 -1992.97 0	-1923.65 -1735.57 0	-2154.21 -1440.14 0	-2340.01 -1112.91 0	-2476.08 -761.036 0	
-2563.6 -391.397 0	
1865.23 -275.822 0	1808.24 -536.965 0	1717.72 -787.919 0	1593.09 -1024.33 0	1436.83 -1241.59 0	
1251.7 -1435.4 0	1041.02 -1601.84 0	808.609 -1737.4 0	558.805 -1839.08 0	296.363 -1904.46 0	
26.4007 -1931.8 0	-245.692 -1920.07 0	-514.353 -1869.04 0	-773.963 -1779.29 0	-1018.97 -1652.29 0	
-1244.04 -1490.35 0	-1444.17 -1296.6 0	-1614.85 -1074.99 0	-1752.15 -830.143 0	-1852.55 -567.361 0	
-1915.96 -291.957 0	
1405.48 -208.592 0	1362.79 -406.196 0	1293.96 -596.091 0	1199.28 -774.751 0	1080.64 -938.639 0	
940.207 -1084.5 0	780.583 -1209.36 0	604.757 -1310.62 0	416.08 -1386.07 0	218.207 -1433.98 0	
15.0405 -1453.13 0	-189.339 -1442.87 0	-390.754 -1403.13 0	-585.017 -1334.47 0	-768.02 -1238.09 0	
-935.834 -1115.78 0	-1084.81 -969.953 0	-1211.65 -803.577 0	-1313.54 -620.11 0	-1388 -423.476 0	
-1434.31 -217.753 0	
1058.73 -157.304 0	1026.7 -306.65 0	974.49 -450.158 0	902.726 -585.038 0	812.842 -708.597 0	
706.526 -818.365 0	585.79 -912.108 0	452.947 -987.876 0	310.571 -1044.05 0	161.455 -1079.36 0	
8.56697 -1092.96 0	-145.013 -1084.42 0	-296.146 -1053.76 0	-441.704 -1001.46 0	-578.635 -928.463 0	
-704.035 -836.173 0	-815.216 -726.422 0	-909.772 -601.443 0	-985.637 -463.821 0	-1041.05 -316.473 0	
-1075.13 -162.502 0	
797.397 -118.443 0	773.279 -231.21 0	733.759 -339.553 0	679.461 -441.303 0	611.474 -534.416 0	
531.102 -617.022 0	439.894 -687.439 0	339.625 -744.209 0	232.261 -786.131 0	119.93 -812.285 0	
4.87947 -822.059 0	-110.565 -815.167 0	-224.046 -791.663 0	-333.222 -751.945 0	-435.821 -696.753 0	
-529.686 -627.162 0	-612.829 -544.565 0	-683.475 -450.641 0	-740.109 -347.327 0	-781.449 -236.794 0	
-806.73 -121.392 0	
600.462 -89.12 0	582.297 -174.205 0	552.423 -255.938 0	511.392 -332.649 0	460.032 -402.794 0	
399.34 -464.958 0	330.503 -517.876 0	254.875 -560.455 0	173.955 -591.804 0	89.356 -611.245 0	
2.77932 -618.337 0	-84.0219 -612.887 0	-169.276 -594.955 0	-251.229 -564.862 0	-328.184 -523.181 0	
-398.535 -470.734 0	-460.805 -408.573 0	-513.681 -337.966 0	-556.042 -260.362 0	-586.952 -177.381 0	
-605.777 -90.7935 0	
452.1 -67.0493 0	438.419 -131.211 0	415.86 -192.832 0	384.885 -250.641 0	346.12 -303.469 0	
300.327 -350.249 0	248.41 -390.029 0	191.4 -421.99 0	130.434 -445.466 0	66.7332 -459.959 0	
1.58324 -465.146 0	-63.6946 -460.895 0	-127.769 -447.262 0	-189.324 -424.5 0	-247.09 -393.051 0	
-299.87 -353.539 0	-346.562 -306.76 0	-386.191 -253.668 0	-417.923 -195.351 0	-441.072 -133.018 0	
-455.128 -67.9994 0	
340.357 -50.4599 0	330.054 -98.8216 0	313.032 -145.259 0	289.666 -188.807 0	260.428 -228.585 0	
225.898 -263.788 0	186.764 -293.699 0	143.806 -317.704 0	97.886 -335.306 0	49.9282 -346.134 0	
0.901999 -349.952 0	-48.1971 -346.667 0	-96.3677 -336.329 0	-142.623 -319.135 0	-186.012 -295.421 0	
-225.639 -265.663 0	-260.681 -230.461 0	-290.411 -190.531 0	-314.209 -146.693 0	-331.567 -99.8498 0	
-342.083 -50.9997 0	
256.211 -37.9988 0	248.453 -74.4384 0	235.616 -109.421 0	218 -142.218 0	195.959 -172.165 0	
169.935 -198.656 0	140.447 -221.151 0	108.088 -239.188 0	73.5086 -252.397 0	37.4069 -260.5 0	
0.513947 -263.324 0	-36.4205 -260.804 0	-72.6436 -252.98 0	-107.414 -240.003 0	-140.019 -222.132 0	
-169.787 -199.724 0	-196.104 -173.234 0	-218.425 -143.2 0	-236.287 -110.237 0	-249.315 -75.0238 0	
-257.195 -38.3056 0	
192.855 -28.6406 0	187.013 -56.0895 0	177.338 -82.4354 0	164.062 -107.131 0	147.454 -129.674 0	
127.846 -149.609 0	105.635 -166.528 0	81.2651 -180.086 0	55.2298 -190.005 0	28.0554 -196.077 0	
0.292875 -198.175 0	-27.4933 -196.25 0	-54.7369 -190.337 0	-80.8812 -180.551 0	-105.391 -167.087 0	
-127.762 -150.217 0	-147.536 -130.283 0	-164.304 -107.69 0	-177.72 -82.9007 0	-187.505 -56.4228 0	
-193.416 -28.8151 0	
145.158 -21.6123 0	140.759 -42.2842 0	133.469 -62.122 0	123.467 -80.7139 0	110.956 -97.6825 0	
96.1884 -112.683 0	79.461 -125.41 0	61.1118 -135.604 0	41.512 -143.056 0	21.0586 -147.611 0	
0.166913 -149.173 0	-20.7383 -147.709 0	-41.2311 -143.245 0	-60.8931 -135.869 0	-79.3221 -125.729 0	
-96.1406 -113.03 0	-111.004 -98.0295 0	-123.605 -81.0329 0	-133.687 -62.3871 0	-141.039 -42.4741 0	
-145.478 -21.7116 0	
109.253 -16.3329 0	105.94 -31.8984 0	100.449 -46.8333 0	92.916 -60.8287 0	83.4939 -73.6001 0	
72.3731 -84.8881 0	59.7782 -94.4628 0	45.964 -102.129 0	31.2103 -107.729 0	15.8165 -111.148 0	
0.0951344 -112.315 0	-15.6339 -111.205 0	-31.0502 -107.837 0	-45.8393 -102.28 0	-59.6991 -94.6445 0	
-72.3459 -85.0858 0	-83.5209 -73.7979 0	-92.9948 -61.0105 0	-100.573 -46.9844 0	-106.1 -32.0065 0	
-109.435 -16.3895 0	
82.2256 -12.3663 0	79.7318 -24.0851 0	75.5962 -35.3276 0	69.9236 -45.8619 0	62.8291 -55.4738 0	
54.4561 -63.968 0	44.974 -71.1714 0	34.5751 -76.9372 0	23.4702 -81.1474 0	11.8848 -83.7156 0	
0.0542274 -84.5886 0	-11.7807 -83.7477 0	-23.379 -81.209 0	-34.5041 -77.0232 0	-44.929 -71.275 0	
-54.4406 -64.0807 0	-62.8445 -55.5866 0	-69.9686 -45.9655 0	-75.6671 -35.4137 0	-79.8229 -24.1467 0	
-82.3295 -12.3985 0	
61.8828 -9.38511 0	60.0052 -18.207 0	56.8912 -26.6693 0	52.6203 -34.5979 0	47.2791 -41.8316 0	
40.9757 -48.2234 0	33.8379 -53.6431 0	26.0106 -57.9802 0	17.6525 -61.1461 0	8.93354 -63.076 0	
0.0309119 -63.73 0	-8.87422 -63.0943 0	-17.6005 -61.1812 0	-25.9701 -58.0293 0	-33.8122 -53.7022 0	
-40.9669 -48.2877 0	-47.2878 -41.8959 0	-52.646 -34.657 0	-56.9317 -26.7184 0	-60.0572 -18.2421 0	
-61.9421 -9.40345 0	
46.5717 -7.14406 0	45.1582 -13.7846 0	42.8137 -20.1538 0	39.5985 -26.1209 0	35.5777 -31.5648 0	
30.8329 -36.3745 0	25.4602 -40.4523 0	19.5689 -43.715 0	13.2785 -46.0961 0	6.71695 -47.5467 0	
0.017622 -48.0372 0	-6.68313 -47.5572 0	-13.2489 -46.1161 0	-19.5458 -43.743 0	-25.4456 -40.486 0	
-30.8278 -36.4112 0	-35.5827 -31.6014 0	-39.6132 -26.1546 0	-42.8368 -20.1818 0	-45.1878 -13.8047 0	
-46.6055 -7.15451 0	
35.0483 -5.459 0	33.9841 -10.4573 0	32.2192 -15.2508 0	29.799 -19.7416 0	26.7724 -23.8383 0	
23.201 -27.4576 0	19.1573 -30.5259 0	14.7233 -32.9805 0	9.98926 -34.7715 0	5.05136 -35.8622 0	
0.0100462 -36.2303 0	-5.03208 -35.8682 0	-9.97235 -34.7829 0	-14.7102 -32.9964 0	-19.1489 -30.545 0	
-23.1982 -27.4785 0	-26.7753 -23.8592 0	-29.8073 -19.7608 0	-32.2324 -15.2668 0	-34.001 -10.4687 0	
-35.0675 -5.46495 0	
26.3757 -4.19175 0	25.5746 -7.95382 0	24.2461 -11.5613 0	22.4244 -14.9409 0	20.1464 -18.0238 0	
17.4584 -20.7473 0	14.415 -23.056 0	11.078 -24.9028 0	7.51531 -26.2501 0	3.79935 -27.0703 0	
0.00572748 -27.3468 0	-3.78836 -27.0737 0	-7.50567 -26.2566 0	-11.0705 -24.9119 0	-14.4102 -23.0669 0	
-17.4568 -20.7592 0	-20.148 -18.0357 0	-22.4292 -14.9519 0	-24.2536 -11.5704 0	-25.5842 -7.96033 0	
-26.3866 -4.19514 0	
19.8488 -3.23856 0	19.2458 -6.07008 0	18.2459 -8.78496 0	16.8748 -11.3283 0	15.1603 -13.6482 0	
13.1372 -15.6976 0	10.8468 -17.4348 0	8.33547 -18.8243 0	5.65436 -19.8379 0	2.85799 -20.4549 0	
0.00326538 -20.6626 0	-2.85173 -20.4568 0	-5.64887 -19.8416 0	-8.33119 -18.8295 0	-10.8441 -17.441 0	
-13.1363 -15.7044 0	-15.1612 -13.655 0	-16.8775 -11.3345 0	-18.2502 -8.79015 0	-19.2513 -6.07379 0	
-19.8551 -3.2405 0	
14.9369 -2.52153 0	14.483 -4.65264 0	13.7304 -6.69571 0	12.6985 -8.60963 0	11.4082 -10.3554 0	
9.88568 -11.8976 0	8.16194 -13.2048 0	6.27203 -14.2503 0	4.25439 -15.0128 0	2.15006 -15.4769 0	
0.00186171 -15.6331 0	-2.14649 -15.478 0	-4.25126 -15.015 0	-6.26959 -14.2532 0	-8.16039 -13.2083 0	
-9.88515 -11.9015 0	-11.4087 -10.3593 0	-12.7001 -8.61318 0	-13.7329 -6.69867 0	-14.4862 -4.65475 0	
-14.9405 -2.52263 0	
11.2404 -1.98208 0	10.8988 -3.58604 0	10.3324 -5.12353 0	9.55578 -6.5638 0	8.58471 -7.87753 0	
7.43891 -9.03801 0	6.14171 -10.0216 0	4.71947 -10.8083 0	3.20113 -11.3821 0	1.61759 -11.7312 0	
0.00106144 -11.8486 0	-1.61555 -11.7318 0	-3.19935 -11.3833 0	-4.71808 -10.81 0	-6.14082 -10.0236 0	
-7.43861 -9.04022 0	-8.58501 -7.87974 0	-9.55667 -6.56582 0	-10.3338 -5.12521 0	-10.9006 -3.58725 0	
-11.2425 -1.98271 0	
8.45867 -1.57621 0	8.20154 -2.78344 0	7.77527 -3.94044 0	7.19081 -5.02427 0	6.46002 -6.01287 0	
5.59775 -6.88612 0	4.62154 -7.62625 0	3.55127 -8.2182 0	2.40868 -8.64991 0	1.21705 -8.91258 0	
0.000605181 -9.00085 0	-1.21589 -8.91293 0	-2.40767 -8.65059 0	-3.55047 -8.21916 0	-4.62104 -7.62741 0	
-5.59758 -6.88738 0	-6.46019 -6.01412 0	-7.19131 -5.02542 0	-7.77606 -3.9414 0	-8.20256 -2.78413 0	
-8.45983 -1.57657 0	
6.36529 -1.27083 0	6.17176 -2.17948 0	5.85096 -3.05015 0	5.41113 -3.86574 0	4.86117 -4.60967 0	
4.21228 -5.26679 0	3.47766 -5.82373 0	2.67225 -6.26915 0	1.81244 -6.59398 0	0.91572 -6.79161 0	
0.000345046 -6.858 0	-0.915057 -6.79181 0	-1.81186 -6.59437 0	-2.6718 -6.2697 0	-3.47737 -5.82439 0	
-4.21218 -5.26751 0	-4.86127 -4.61039 0	-5.41142 -3.8664 0	-5.85142 -3.0507 0	-6.17234 -2.17987 0	
-6.36596 -1.27104 0	
4.78996 -1.04105 0	4.64431 -1.72501 0	4.40289 -2.38019 0	4.07189 -2.99394 0	3.65803 -3.55375 0	
3.16973 -4.04823 0	2.61691 -4.46732 0	2.01082 -4.80248 0	1.3638 -5.0469 0	0.689016 -5.1956 0	
0.00019673 -5.24554 0	-0.688639 -5.19572 0	-1.36347 -5.04713 0	-2.01056 -4.80279 0	-2.61674 -4.46769 0	
-3.16967 -4.04864 0	-3.65809 -3.55416 0	-4.07206 -2.99432 0	-4.40314 -2.38051 0	-4.64465 -1.72523 0	
-4.79034 -1.04117 0	
3.60441 -0.868137 0	3.49491 -1.38302 0	3.31319 -1.87605 0	3.06411 -2.3379 0	2.75267 -2.75915 0	
2.3852 -3.13125 0	1.9692 -3.44661 0	1.51311 -3.69881 0	1.02623 -3.88273 0	0.518448 -3.99462 0	
0.000112167 -4.03219 0	-0.518233 -3.99468 0	-1.02604 -3.88286 0	-1.51297 -3.69899 0	-1.96911 -3.44682 0	
-2.38517 -3.13148 0	-2.7527 -2.75939 0	-3.0642 -2.33811 0	-3.31333 -1.87623 0	-3.4951 -1.38315 0	
-3.60463 -0.868204 0	
2.71226 -0.738017 0	2.62995 -1.12568 0	2.49317 -1.49668 0	2.30573 -1.84422 0	2.07137 -2.16122 0	
1.79485 -2.44122 0	1.4818 -2.67852 0	1.1386 -2.8683 0	0.772213 -3.0067 0	0.39011 -3.09088 0	
6.39531e-05 -3.11915 0	-0.389988 -3.09092 0	-0.772106 -3.00677 0	-1.13851 -2.86841 0	-1.48175 -2.67865 0	
-1.79484 -2.44135 0	-2.07139 -2.16135 0	-2.30579 -1.84434 0	-2.49326 -1.49678 0	-2.63005 -1.12575 0	
-2.71238 -0.738055 0	
2.04094 -0.640115 0	1.97903 -0.932025 0	1.8761 -1.2112 0	1.73506 -1.47273 0	1.5587 -1.71127 0	
1.35062 -1.92197 0	1.11504 -2.10054 0	0.85678 -2.24334 0	0.581076 -2.34748 0	0.293545 -2.41083 0	
3.64635e-05 -2.4321 0	-0.293475 -2.41085 0	-0.581015 -2.34752 0	-0.856732 -2.2434 0	-1.11501 -2.10061 0	
-1.3506 -1.92204 0	-1.55871 -1.71134 0	-1.73509 -1.4728 0	-1.87615 -1.21126 0	-1.97909 -0.932066 0	
-2.04101 -0.640136 0	
1.5358 -0.566453 0	1.48921 -0.786303 0	1.41176 -0.996378 0	1.30562 -1.19318 0	1.17291 -1.37268 0	
1.01633 -1.53123 0	0.83906 -1.6656 0	0.644716 -1.77307 0	0.43725 -1.85143 0	0.220884 -1.89909 0	
2.079e-05 -1.9151 0	-0.220844 -1.89911 0	-0.437215 -1.85145 0	-0.644689 -1.7731 0	-0.839043 -1.66564 0	
-1.01632 -1.53127 0	-1.17291 -1.37272 0	-1.30564 -1.19322 0	-1.41178 -0.996411 0	-1.48925 -0.786327 0	
-1.53584 -0.566465 0	
1.15568 -0.511031 0	1.12062 -0.67665 0	1.06233 -0.834728 0	0.982465 -0.98282 0	0.882601 -1.1179 0	
0.764774 -1.2372 0	0.631382 -1.33832 0	0.48514 -1.41918 0	0.329023 -1.47815 0	0.166209 -1.51402 0	
1.18537e-05 -1.52606 0	-0.166186 -1.51402 0	-0.329003 -1.47816 0	-0.485124 -1.4192 0	-0.631373 -1.33834 0	
-0.764771 -1.23723 0	-0.882605 -1.11792 0	-0.982475 -0.982843 0	-1.06235 -0.834747 0	-1.12063 -0.676663 0	
-1.1557 -0.511038 0	
0.869637 -0.469332 0	0.843245 -0.594138 0	0.799391 -0.713089 0	0.739292 -0.824528 0	0.664146 -0.926172 0	
0.575482 -1.01595 0	0.475106 -1.09204 0	0.36506 -1.15289 0	0.247584 -1.19726 0	0.125068 -1.22425 0	
6.75849e-06 -1.23331 0	-0.125055 -1.22425 0	-0.247573 -1.19727 0	-0.365051 -1.1529 0	-0.475101 -1.09205 0	
-0.57548 -1.01597 0	-0.664148 -0.926186 0	-0.739297 -0.824541 0	-0.7994 -0.7131 0	-0.843256 -0.594146 0	
-0.86965 -0.469336 0	
0.654392 -0.437959 0	0.634524 -0.532051 0	0.601527 -0.621559 0	0.556304 -0.705417 0	0.499758 -0.781903 0	
0.433041 -0.849462 0	0.357509 -0.906718 0	0.274701 -0.952507 0	0.186302 -0.985896 0	0.0941108 -1.00621 0	
3.85343e-06 -1.01302 0	-0.0941034 -1.00621 0	-0.186296 -0.9859 0	-0.274696 -0.952513 0	-0.357506 -0.906726 0	
-0.43304 -0.84947 0	-0.499759 -0.781911 0	-0.556307 -0.705424 0	-0.601532 -0.621565 0	-0.634531 -0.532055 0	
-0.6544 -0.437962 0	
0.49242 -0.414357 0	0.477463 -0.485333 0	0.452635 -0.552686 0	0.418607 -0.615788 0	0.376057 -0.673344 0	
0.325854 -0.724182 0	0.269018 -0.767267 0	0.206707 -0.801722 0	0.140188 -0.826847 0	0.0708158 -0.84213 0	
2.19707e-06 -0.847259 0	-0.0708116 -0.842131 0	-0.140184 -0.826849 0	-0.206704 -0.801726 0	-0.269016 -0.767271 0	
-0.325853 -0.724186 0	-0.376058 -0.673349 0	-0.418608 -0.615793 0	-0.452638 -0.55269 0	-0.477467 -0.485335 0	
-0.492424 -0.414358 0	
0.370535 -0.3966 0	0.359275 -0.45018 0	0.340595 -0.500862 0	0.31499 -0.548346 0	0.282973 -0.591656 0	
0.245196 -0.629911 0	0.202429 -0.662332 0	0.155541 -0.68826 0	0.105488 -0.707166 0	0.0532868 -0.718666 0	
1.25268e-06 -0.722526 0	-0.0532844 -0.718667 0	-0.105486 -0.707168 0	-0.15554 -0.688262 0	-0.202428 -0.662335 0	
-0.245196 -0.629914 0	-0.282973 -0.591659 0	-0.314991 -0.548348 0	-0.340597 -0.500864 0	-0.359277 -0.450181 0	
-0.370537 -0.3966 0	
0.278816 -0.383241 0	0.27034 -0.42373 0	0.256285 -0.461867 0	0.237019 -0.497598 0	0.212927 -0.530189 0	
0.184502 -0.558976 0	0.152321 -0.583373 0	0.11704 -0.602883 0	0.0793759 -0.61711 0	0.0400964 -0.625763 0	
7.14228e-07 -0.628668 0	-0.040095 -0.625764 0	-0.0793747 -0.61711 0	-0.117039 -0.602884 0	-0.152321 -0.583374 0	
-0.184502 -0.558977 0	-0.212928 -0.530191 0	-0.237019 -0.4976 0	-0.256286 -0.461868 0	-0.270341 -0.423731 0	
-0.278817 -0.383242 0	
0.209797 -0.373192 0	0.203417 -0.403828 0	0.192842 -0.432526 0	0.178346 -0.459414 0	0.160219 -0.483938 0	
0.13883 -0.5056 0	0.114615 -0.523958 0	0.0880675 -0.53864 0	0.0597271 -0.549345 0	0.0301708 -0.555857 0	
4.07224e-07 -0.558042 0	-0.03017 -0.555857 0	-0.0597264 -0.549346 0	-0.088067 -0.53864 0	-0.114615 -0.523959 0	
-0.13883 -0.505601 0	-0.160219 -0.483939 0	-0.178346 -0.459414 0	-0.192843 -0.432527 0	-0.203418 -0.403829 0	
-0.209798 -0.373192 0	
0.15786 -0.365633 0	0.153058 -0.388855 0	0.145102 -0.410449 0	0.134195 -0.430682 0	0.120555 -0.449137 0	
0.104462 -0.465437 0	0.0862417 -0.479252 0	0.0662661 -0.4903 0	0.0449414 -0.498355 0	0.0227019 -0.503256 0	
2.32181e-07 -0.5049 0	-0.0227014 -0.503256 0	-0.044941 -0.498356 0	-0.0662658 -0.4903 0	-0.0862415 -0.479252 0	
-0.104462 -0.465438 0	-0.120555 -0.449137 0	-0.134195 -0.430683 0	-0.145102 -0.41045 0	-0.153058 -0.388855 0	
-0.157861 -0.365633 0	
0.118777 -0.359947 0	0.115163 -0.377589 0	0.109178 -0.393839 0	0.100971 -0.409065 0	0.0907087 -0.422952 0	
0.0785998 -0.435218 0	0.0648906 -0.445613 0	0.0498605 -0.453927 0	0.0338152 -0.459989 0	0.0170815 -0.463676 0	
1.32379e-07 -0.464914 0	-0.0170813 -0.463676 0	-0.033815 -0.459989 0	-0.0498603 -0.453927 0	-0.0648905 -0.445614 0	
-0.0785997 -0.435218 0	-0.0907088 -0.422952 0	-0.100971 -0.409065 0	-0.109178 -0.393839 0	-0.115163 -0.37759 0	
-0.118777 -0.359948 0	
0.089366 -0.355671 0	0.0866462 -0.369115 0	0.0821439 -0.381343 0	0.0759698 -0.3928 0	0.0682489 -0.40325 0	
0.0591383 -0.412481 0	0.0488238 -0.420304 0	0.0375151 -0.426559 0	0.0254427 -0.431121 0	0.0128522 -0.433896 0	
7.54773e-08 -0.434827 0	-0.0128521 -0.433896 0	-0.0254425 -0.431121 0	-0.037515 -0.42656 0	-0.0488237 -0.420304 0	
-0.0591383 -0.412481 0	-0.0682489 -0.40325 0	-0.0759698 -0.3928 0	-0.082144 -0.381343 0	-0.0866463 -0.369115 0	
-0.0893661 -0.355671 0	
0.0672331 -0.352455 0	0.0651867 -0.36274 0	0.0618003 -0.371942 0	0.0571558 -0.380564 0	0.0513473 -0.388428 0	
0.0444932 -0.395374 0	0.0367331 -0.401261 0	0.028225 -0.405969 0	0.0191422 -0.409402 0	0.00966956 -0.41149 0	
4.30342e-08 -0.412191 0	-0.00966948 -0.41149 0	-0.0191421 -0.409402 0	-0.028225 -0.405969 0	-0.0367331 -0.401261 0	
-0.0444932 -0.395374 0	-0.0513473 -0.388428 0	-0.0571558 -0.380564 0	-0.0618004 -0.371942 0	-0.0651868 -0.36274 0	
-0.0672332 -0.352455 0	
0.0505765 -0.350038 0	0.0490372 -0.357945 0	0.0464907 -0.36487 0	0.0429973 -0.371359 0	0.0386281 -0.377277 0	
0.0334721 -0.382505 0	0.0276344 -0.386935 0	0.0212339 -0.390478 0	0.0144008 -0.393061 0	0.00727451 -0.394633 0	
2.4536e-08 -0.39516 0	-0.00727447 -0.394633 0	-0.0144008 -0.393061 0	-0.0212338 -0.390478 0	-0.0276344 -0.386935 0	
-0.0334721 -0.382505 0	-0.0386281 -0.377277 0	-0.0429973 -0.371359 0	-0.0464907 -0.36487 0	-0.0490372 -0.357946 0	
-0.0505765 -0.350038 0	
0.0380406 -0.348221 0	0.036883 -0.354341 0	0.0349688 -0.359553 0	0.0323419 -0.364436 0	0.0290559 -0.36889 0	
0.025178 -0.372824 0	0.0207871 -0.376158 0	0.0159726 -0.378825 0	0.0108327 -0.380769 0	0.0054721 -0.381951 0	
1.39899e-08 -0.382348 0	-0.00547208 -0.381951 0	-0.0108327 -0.380769 0	-0.0159726 -0.378825 0	-0.020787 -0.376158 0	
-0.025178 -0.372824 0	-0.029056 -0.36889 0	-0.0323419 -0.364436 0	-0.0349688 -0.359553 0	-0.036883 -0.354341 0	
-0.0380406 -0.348221 0	
0.0286054 -0.346857 0	0.0277351 -0.351633 0	0.0262971 -0.355555 0	0.0243224 -0.359231 0	0.0218519 -0.362583 0	
0.0189358 -0.365544 0	0.0156338 -0.368053 0	0.012013 -0.37006 0	0.00814738 -0.371523 0	0.00411564 -0.372413 0	
7.97752e-09 -0.372712 0	-0.00411563 -0.372413 0	-0.00814737 -0.371523 0	-0.012013 -0.37006 0	-0.0156338 -0.368053 0	
-0.0189358 -0.365544 0	-0.0218519 -0.362583 0	-0.0243224 -0.359231 0	-0.0262971 -0.355555 0	-0.0277351 -0.351633 0	
-0.0286054 -0.346857 0	
0.0215034 -0.345834 0	0.0208492 -0.3496 0	0.0197699 -0.352552 0	0.0182864 -0.355318 0	0.0164297 -0.357841 0	
0.0142378 -0.36007 0	0.0117553 -0.361958 0	0.00903302 -0.363469 0	0.0061264 -0.36457 0	0.00309477 -0.36524 0	
4.55029e-09 -0.365464 0	-0.00309476 -0.36524 0	-0.00612639 -0.36457 0	-0.00903301 -0.363469 0	-0.0117553 -0.361958 0	
-0.0142378 -0.36007 0	-0.0164297 -0.357841 0	-0.0182864 -0.355318 0	-0.0197699 -0.352552 0	-0.0208492 -0.3496 0	
-0.0215034 -0.345834 0	
0.016157 -0.345068 0	0.0156654 -0.348077 0	0.0148565 -0.350297 0	0.0137429 -0.352379 0	0.0123486 -0.354278 0	
0.0107018 -0.355956 0	0.00883629 -0.357377 0	0.00679023 -0.358514 0	0.00460541 -0.359342 0	0.00232647 -0.359846 0	
2.59591e-09 -0.360016 0	-0.00232647 -0.359846 0	-0.0046054 -0.359342 0	-0.00679023 -0.358514 0	-0.00883629 -0.357377 0	
-0.0107018 -0.355956 0	-0.0123486 -0.354278 0	-0.013743 -0.352379 0	-0.0148565 -0.350297 0	-0.0156654 -0.348077 0	
-0.016157 -0.345068 0	
0.0121322 -0.344496 0	0.0117626 -0.346937 0	0.0111578 -0.348606 0	0.0103231 -0.350174 0	0.00927691 -0.351603 0	
0.0080406 -0.352865 0	0.00663954 -0.353935 0	0.00510246 -0.35479 0	0.00346084 -0.355413 0	0.00174833 -0.355793 0	
1.481e-09 -0.35592 0	-0.00174833 -0.355793 0	-0.00346084 -0.355413 0	-0.00510246 -0.35479 0	-0.00663954 -0.353935 0	
-0.0080406 -0.352865 0	-0.00927691 -0.351603 0	-0.0103231 -0.350174 0	-0.0111578 -0.348606 0	-0.0117626 -0.346937 0	
-0.0121322 -0.344496 0	
0.00910287 -0.344071 0	0.00882438 -0.346088 0	0.0083739 -0.347342 0	0.00774953 -0.348521 0	0.00696563 -0.349596 0	
0.00603838 -0.350545 0	0.00498688 -0.35135 0	0.00383278 -0.351993 0	0.00259984 -0.352462 0	0.00131343 -0.352747 0	
8.44599e-10 -0.352843 0	-0.00131343 -0.352747 0	-0.00259984 -0.352462 0	-0.00383278 -0.351993 0	-0.00498688 -0.35135 0	
-0.00603838 -0.350545 0	-0.00696563 -0.349596 0	-0.00774953 -0.348521 0	-0.0083739 -0.347342 0	-0.00882438 -0.346088 0	
-0.00910288 -0.344071 0	
0.00682432 -0.343757 0	0.0066134 -0.34546 0	0.00627979 -0.346398 0	0.00581407 -0.347285 0	0.00522777 -0.348093 0	
0.00453313 -0.348806 0	0.00374456 -0.34941 0	0.00287844 -0.349893 0	0.00195272 -0.350245 0	0.00098657 -0.350459 0	
4.80837e-10 -0.350531 0	-0.000986569 -0.350459 0	-0.00195272 -0.350245 0	-0.00287844 -0.349893 0	-0.00374456 -0.34941 0	
-0.00453313 -0.348806 0	-0.00522777 -0.348093 0	-0.00581407 -0.347285 0	-0.00627979 -0.346398 0	-0.0066134 -0.34546 0	
-0.00682432 -0.343757 0	
0.0051135 -0.343528 0	0.00495185 -0.345 0	0.0047069 -0.345698 0	0.00436087 -0.346362 0	0.00392331 -0.346968 0	
0.00340352 -0.347502 0	0.00281243 -0.347955 0	0.00216248 -0.348317 0	0.00146728 -0.34858 0	0.000741389 -0.348741 0	
2.72911e-10 -0.348795 0	-0.000741388 -0.348741 0	-0.00146727 -0.34858 0	-0.00216247 -0.348317 0	-0.00281243 -0.347955 0	
-0.00340352 -0.347502 0	-0.00392331 -0.346968 0	-0.00436087 -0.346362 0	-0.0047069 -0.345698 0	-0.00495185 -0.345 0	
-0.0051135 -0.343528 0	
0.00383412 -0.343364 0	0.00370717 -0.344667 0	0.00352955 -0.345181 0	0.00327369 -0.345676 0	0.0029478 -0.346128 0	
0.00255903 -0.346526 0	0.00211575 -0.346863 0	0.00162745 -0.347133 0	0.00110456 -0.347329 0	0.000558204 -0.347449 0	
1.55725e-10 -0.347489 0	-0.000558204 -0.347449 0	-0.00110456 -0.347329 0	-0.00162745 -0.347133 0	-0.00211575 -0.346863 0	
-0.00255903 -0.346526 0	-0.0029478 -0.346128 0	-0.00327369 -0.345676 0	-0.00352955 -0.345181 0	-0.00370717 -0.344667 0	
-0.00383412 -0.343364 0	
0.00288556 -0.343248 0	0.00278128 -0.344433 0	0.00265469 -0.344802 0	0.00246642 -0.345168 0	0.00222383 -0.345501 0	
0.00193256 -0.345794 0	0.00159908 -0.346043 0	0.00123076 -0.346241 0	0.000835663 -0.346386 0	0.000422416 -0.346474 0	
8.86888e-11 -0.346504 0	-0.000422416 -0.346474 0	-0.000835663 -0.346386 0	-0.00123076 -0.346241 0	-0.00159908 -0.346043 0	
-0.00193256 -0.345794 0	-0.00222383 -0.345501 0	-0.00246642 -0.345168 0	-0.00265469 -0.344802 0	-0.00278128 -0.344433 0	
-0.00288556 -0.343248 0	
0.00219469 -0.343169 0	0.00210257 -0.344274 0	0.00201426 -0.344527 0	0.00187602 -0.344791 0	0.00169469 -0.345031 0	
0.00147489 -0.345243 0	0.00122176 -0.345422 0	0.000941119 -0.345566 0	0.000639364 -0.34567 0	0.000323296 -0.345733 0	
4.99963e-11 -0.345755 0	-0.000323296 -0.345733 0	-0.000639364 -0.34567 0	-0.000941119 -0.345566 0	-0.00122176 -0.345422 0	
-0.00147489 -0.345243 0	-0.00169469 -0.345031 0	-0.00187602 -0.344791 0	-0.00201426 -0.344527 0	-0.00210257 -0.344274 0	
-0.00219469 -0.343169 0	
0.00170981 -0.343117 0	0.00161997 -0.344172 0	0.00155957 -0.344328 0	0.00145725 -0.34451 0	0.00131958 -0.344676 0	