# vtk DataFile Version 2.0
Titre
ASCII
DATASET STRUCTURED_POINTS
DIMENSIONS 21 101 1
ORIGIN 0.0 0.0 0.0
SPACING 0.005 0.01 0.0
POINT_DATA 2121 
VECTORS velocity float

0.647562 1.42528 0	0.679194 1.34919 0	0.709263 1.2961 0	0.734037 1.25775 0	0.753457 1.22954 0	
0.768511 1.20864 0	0.780309 1.19326 0	0.789803 1.18225 0	0.797751 1.17484 0	0.804754 1.17058 0	
0.81131 1.16918 0	0.817866 1.17058 0	0.82487 1.17484 0	0.832817 1.18225 0	0.842311 1.19326 0	
0.854109 1.20864 0	0.869163 1.22954 0	0.888582 1.25775 0	0.913354 1.2961 0	0.943403 1.34924 0	
0.974628 1.42517 0	
-0.849681 -0.131216 0	-0.578294 -0.166358 0	-0.410121 -0.199914 0	-0.298803 -0.230263 0	-0.220716 -0.256597 0	
-0.163131 -0.278626 0	-0.11869 -0.296344 0	-0.0828206 -0.309878 0	-0.0524675 -0.319393 0	-0.0254198 -0.325036 0	
7.62389e-05 -0.326906 0	0.0255722 -0.325036 0	0.0526198 -0.319393 0	0.0829727 -0.309878 0	0.118842 -0.296344 0	
0.163283 -0.278626 0	0.220867 -0.256596 0	0.298953 -0.230261 0	0.410271 -0.19991 0	0.578447 -0.166349 0	
0.849842 -0.131199 0	
-0.515051 0.068023 0	-0.43969 0.15473 0	-0.3604 0.199096 0	-0.289106 0.220524 0	-0.228155 0.229564 0	
-0.176672 0.232099 0	-0.132878 0.231482 0	-0.094916 0.229655 0	-0.0610929 0.227743 0	-0.0299064 0.226381 0	
-3.60442e-07 0.225894 0	0.0299057 0.226381 0	0.0610921 0.227743 0	0.0949152 0.229656 0	0.132877 0.231483 0	
0.176671 0.232099 0	0.228155 0.229565 0	0.289105 0.220525 0	0.3604 0.199099 0	0.439692 0.154733 0	
0.515054 0.0680261 0	
-0.344275 -0.0225986 0	-0.316115 0.0379758 0	-0.278614 0.0824368 0	-0.23795 0.113434 0	-0.197647 0.134318 0	
-0.159374 0.148001 0	-0.123656 0.156725 0	-0.0903783 0.162104 0	-0.0590937 0.165249 0	-0.0291942 0.166873 0	
-2.74909e-07 0.167372 0	0.0291937 0.166873 0	0.0590932 0.165249 0	0.0903778 0.162104 0	0.123656 0.156725 0	
0.159374 0.148002 0	0.197647 0.134319 0	0.237949 0.113435 0	0.278615 0.082438 0	0.316116 0.037977 0	
0.344277 -0.0225978 0	
-0.242983 -0.054037 0	-0.22951 -0.0141892 0	-0.209484 0.0195497 0	-0.185344 0.0467093 0	-0.15902 0.0677891 0	
-0.131858 0.0836622 0	-0.104673 0.0952578 0	-0.0778674 0.103403 0	-0.0515542 0.108754 0	-0.0256598 0.11178 0	
-1.85758e-07 0.112758 0	0.0256594 0.11178 0	0.0515538 0.108754 0	0.0778671 0.103403 0	0.104673 0.0952581 0	
0.131858 0.0836626 0	0.15902 0.0677896 0	0.185344 0.0467098 0	0.209485 0.0195503 0	0.22951 -0.0141887 0	
0.242984 -0.0540367 0	
-0.176503 -0.0690545 0	-0.168832 -0.0416988 0	-0.156817 -0.01702 0	-0.141471 0.00430399 0	-0.123741 0.0220873 0	
-0.104437 0.0364326 0	-0.0841751 0.0475941 0	-0.0633856 0.0558755 0	-0.0423391 0.0615618 0	-0.0211864 0.0648784 0	
-1.17482e-07 0.0659678 0	0.0211862 0.0648785 0	0.0423388 0.0615619 0	0.0633854 0.0558756 0	0.0841749 0.0475943 0	
0.104437 0.0364328 0	0.123741 0.0220876 0	0.141471 0.00430429 0	0.156818 -0.0170197 0	0.168832 -0.0416986 0	
0.176503 -0.0690543 0	
-0.130213 -0.0777518 0	-0.125331 -0.0582811 0	-0.117479 -0.0401705 0	-0.107129 -0.0239387 0	-0.0947625 -0.00986223 0	
-0.0808448 0.00193802 0	-0.0657877 0.0114507 0	-0.0499319 0.0187283 0	-0.0335482 0.0238485 0	-0.0168479 0.0268858 0	
-7.13625e-08 0.0278921 0	0.0168478 0.0268858 0	0.0335481 0.0238486 0	0.0499318 0.0187284 0	0.0657876 0.0114509 0	
0.0808448 0.00193817 0	0.0947625 -0.00986207 0	0.107129 -0.0239385 0	0.117479 -0.0401703 0	0.125331 -0.058281 0	
0.130213 -0.0777518 0	
-0.0968876 -0.0833787 0	-0.0935594 -0.0692039 0	-0.0881325 -0.0558052 0	-0.0808543 -0.0435599 0	-0.0719879 -0.032707 0	
-0.0618109 -0.0234065 0	-0.0505945 -0.015752 0	-0.03859 -0.00978923 0	-0.0260241 -0.00553307 0	-0.0130993 -0.00298284 0	
-4.22885e-08 -0.00213357 0	0.0130993 -0.00298282 0	0.026024 -0.00553303 0	0.03859 -0.00978917 0	0.0505944 -0.0157519 0	
0.0618109 -0.0234064 0	0.0719879 -0.0327069 0	0.0808543 -0.0435598 0	0.0881325 -0.0558052 0	0.0935595 -0.0692039 0	
0.0968877 -0.0833787 0	
-0.0724375 -0.0872585 0	-0.070074 -0.0768029 0	-0.0661908 -0.0668267 0	-0.0609326 -0.0576111 0	-0.0544556 -0.0493428 0	
-0.0469347 -0.0421664 0	-0.0385532 -0.0361879 0	-0.0294941 -0.0314804 0	-0.0199355 -0.0280909 0	-0.0100489 -0.0260477 0	
-2.46829e-08 -0.0253651 0	0.0100488 -0.0260477 0	0.0199354 -0.0280909 0	0.029494 -0.0314804 0	0.0385532 -0.0361879 0	
0.0469347 -0.0421664 0	0.0544556 -0.0493427 0	0.0609327 -0.0576111 0	0.0661908 -0.0668266 0	0.0700741 -0.0768028 0	
0.0724376 -0.0872585 0	
-0.0543054 -0.090034 0	-0.052586 -0.0822646 0	-0.049749 -0.0748054 0	-0.0458866 -0.0678736 0	-0.0410985 -0.0616107 0	
-0.0355012 -0.0561347 0	-0.0292224 -0.0515402 0	-0.022396 -0.0478992 0	-0.0151587 -0.0452641 0	-0.00764765 -0.0436697 0	
-1.42742e-08 -0.0431361 0	0.00764762 -0.0436697 0	0.0151586 -0.0452641 0	0.022396 -0.0478992 0	0.0292224 -0.0515402 0	
0.0355012 -0.0561347 0	0.0410985 -0.0616106 0	0.0458866 -0.0678735 0	0.049749 -0.0748054 0	0.052586 -0.0822646 0	
0.0543054 -0.090034 0	
-0.0407757 -0.0920622 0	-0.039507 -0.0862661 0	-0.0374087 -0.0806744 0	-0.0345432 -0.0754604 0	-0.0309779 -0.0707306 0	
-0.0267938 -0.0665775 0	-0.0220822 -0.0630783 0	-0.0169418 -0.0602948 0	-0.0114764 -0.058274 0	-0.00579292 -0.0570487 0	
-8.20863e-09 -0.0566382 0	0.00579291 -0.0570487 0	0.0114764 -0.058274 0	0.0169418 -0.0602948 0	0.0220822 -0.0630782 0	
0.0267938 -0.0665775 0	0.0309779 -0.0707306 0	0.0345432 -0.0754604 0	0.0374087 -0.0806744 0	0.039507 -0.0862661 0	
0.0407757 -0.0920622 0	
-0.0306443 -0.0935627 0	-0.0297005 -0.0892308 0	-0.0281374 -0.0850325 0	-0.025999 -0.0811102 0	-0.0233327 -0.0775439 0	
-0.0201965 -0.0744047 0	-0.016657 -0.0717533 0	-0.0127875 -0.0696395 0	-0.00866651 -0.0681022 0	-0.00437592 -0.0671687 0	
-4.70403e-09 -0.0668558 0	0.00437591 -0.0671687 0	0.0086665 -0.0681021 0	0.0127875 -0.0696395 0	0.016657 -0.0717533 0	
0.0201965 -0.0744047 0	0.0233327 -0.0775439 0	0.025999 -0.0811102 0	0.0281374 -0.0850325 0	0.0297005 -0.0892308 0	
0.0306444 -0.0935627 0	
-0.0230423 -0.0946807 0	-0.0223368 -0.0914416 0	-0.0211675 -0.0882866 0	-0.0195661 -0.0853357 0	-0.017567 -0.0826491 0	
-0.0152125 -0.0802808 0	-0.0125518 -0.0782777 0	-0.00963951 -0.0766786 0	-0.00653486 -0.0755144 0	-0.00330019 -0.074807 0	
-2.69068e-09 -0.0745697 0	0.00330019 -0.074807 0	0.00653485 -0.0755144 0	0.00963951 -0.0766786 0	0.0125518 -0.0782777 0	
0.0152125 -0.0802808 0	0.017567 -0.0826491 0	0.0195661 -0.0853357 0	0.0211675 -0.0882866 0	0.0223368 -0.0914416 0	
0.0230423 -0.0946807 0	
-0.0173313 -0.0955172 0	-0.0168025 -0.0930965 0	-0.0159256 -0.0907242 0	-0.014724 -0.088504 0	-0.0132229 -0.0864811 0	
-0.0114536 -0.0846964 0	-0.00945266 -0.0831856 0	-0.00726101 -0.0819786 0	-0.00492323 -0.0810993 0	-0.00248656 -0.0805648 0	
-1.53684e-09 -0.0803855 0	0.00248656 -0.0805648 0	0.00492323 -0.0810993 0	0.007261 -0.0819786 0	0.00945266 -0.0831856 0	
0.0114536 -0.0846964 0	0.0132229 -0.0864811 0	0.014724 -0.088504 0	0.0159256 -0.0907242 0	0.0168025 -0.0930965 0	
0.0173313 -0.0955172 0	
-0.0130381 -0.0961446 0	-0.0126411 -0.0943379 0	-0.0119825 -0.0925537 0	-0.0110798 -0.0908832 0	-0.00995171 -0.0893604 0	
-0.00862141 -0.0880163 0	-0.00711625 -0.0868779 0	-0.005467 -0.0859681 0	-0.00370719 -0.085305 0	-0.00187249 -0.0849018 0	
-8.77242e-10 -0.0847665 0	0.00187249 -0.0849018 0	0.00370719 -0.085305 0	0.00546699 -0.0859681 0	0.00711625 -0.0868779 0	
0.00862141 -0.0880163 0	0.00995171 -0.0893604 0	0.0110798 -0.0908832 0	0.0119825 -0.0925537 0	0.0126411 -0.0943379 0	
0.0130381 -0.0961446 0	
-0.00980937 -0.0966157 0	-0.00951101 -0.0952704 0	-0.00901604 -0.0939282 0	-0.00833744 -0.0926712 0	-0.00748916 -0.0915252 0	
-0.00648861 -0.0905132 0	-0.00535625 -0.089656 0	-0.00411519 -0.0889707 0	-0.00279068 -0.0884711 0	-0.00140962 -0.0881673 0	
-5.00251e-10 -0.0880653 0	0.00140962 -0.0881673 0	0.00279068 -0.0884711 0	0.00411519 -0.0889706 0	0.00535625 -0.089656 0	
0.00648861 -0.0905132 0	0.00748916 -0.0915252 0	0.00833744 -0.0926712 0	0.00901604 -0.0939282 0	0.00951101 -0.0952704 0	
0.00980937 -0.0966157 0	
-0.00738063 -0.0969698 0	-0.00715629 -0.0959714 0	-0.00678409 -0.0949616 0	-0.00627375 -0.0940158 0	-0.00563571 -0.0931533 0	
-0.00488303 -0.0923916 0	-0.00403106 -0.0917462 0	-0.00309719 -0.0912303 0	-0.0021004 -0.0908541 0	-0.00106097 -0.0906253 0	
-2.85652e-10 -0.0905485 0	0.00106097 -0.0906253 0	0.0021004 -0.0908541 0	0.00309719 -0.0912303 0	0.00403106 -0.0917462 0	
0.00488303 -0.0923916 0	0.00563571 -0.0931533 0	0.00627375 -0.0940158 0	0.00678409 -0.0949616 0	0.00715629 -0.0959714 0	
0.00738063 -0.0969698 0	
-0.00555342 -0.0972361 0	-0.00538469 -0.0964985 0	-0.00510473 -0.0957387 0	-0.00472083 -0.0950271 0	-0.00424085 -0.094378 0	
-0.00367457 -0.0938048 0	-0.00303353 -0.0933191 0	-0.00233081 -0.0929306 0	-0.0015807 -0.0926475 0	-0.000798466 -0.0924752 0	
-1.628e-10 -0.0924174 0	0.000798465 -0.0924752 0	0.0015807 -0.0926475 0	0.00233081 -0.0929306 0	0.00303353 -0.0933191 0	
0.00367457 -0.0938048 0	0.00424085 -0.094378 0	0.00472083 -0.0950271 0	0.00510473 -0.0957387 0	0.00538469 -0.0964985 0	
0.00555342 -0.0972361 0	
-0.00417865 -0.0974364 0	-0.00405172 -0.0968951 0	-0.00384111 -0.0963234 0	-0.00355229 -0.0957879 0	-0.00319117 -0.0952994 0	
-0.0027651 -0.0948681 0	-0.00228276 -0.0945025 0	-0.00175398 -0.0942102 0	-0.00118952 -0.093997 0	-0.000600872 -0.0938674 0	
-9.25894e-11 -0.0938239 0	0.000600872 -0.0938674 0	0.00118952 -0.093997 0	0.00175398 -0.0942102 0	0.00228276 -0.0945025 0	
0.0027651 -0.0948681 0	0.00319117 -0.0952994 0	0.00355229 -0.0957879 0	0.00384111 -0.0963234 0	0.00405172 -0.0968951 0	
0.00417865 -0.0974364 0	
-0.00314425 -0.0975871 0	-0.00304875 -0.0971934 0	-0.00289029 -0.0967632 0	-0.00267299 -0.0963602 0	-0.00240128 -0.0959927 0	
-0.00208069 -0.0956681 0	-0.00171776 -0.095393 0	-0.00131987 -0.095173 0	-0.000895121 -0.0950126 0	-0.00045216 -0.094915 0	
-5.28866e-11 -0.0948823 0	0.00045216 -0.094915 0	0.00089512 -0.0950126 0	0.00131987 -0.095173 0	0.00171776 -0.095393 0	
0.00208069 -0.0956681 0	0.00240128 -0.0959927 0	0.00267299 -0.0963602 0	0.00289029 -0.0967632 0	0.00304875 -0.0971934 0	
0.00314425 -0.0975871 0	
-0.00236592 -0.0977005 0	-0.00229407 -0.0974178 0	-0.00217484 -0.0970941 0	-0.00201134 -0.0967909 0	-0.0018069 -0.0965144 0	
-0.00156568 -0.0962701 0	-0.00129258 -0.0960631 0	-0.000993182 -0.0958975 0	-0.000673568 -0.0957768 0	-0.000340246 -0.0957034 0	
-2.95524e-11 -0.0956788 0	0.000340246 -0.0957034 0	0.000673568 -0.0957768 0	0.000993181 -0.0958975 0	0.00129258 -0.0960631 0	
0.00156568 -0.0962701 0	0.0018069 -0.0965144 0	0.00201134 -0.0967909 0	0.00217484 -0.0970941 0	0.00229407 -0.0974178 0	
0.00236592 -0.0977005 0	
-0.00178027 -0.0977858 0	-0.00172621 -0.0975867 0	-0.0016365 -0.0973431 0	-0.00151347 -0.097115 0	-0.00135964 -0.0969069 0	
-0.00117813 -0.0967231 0	-0.000972637 -0.0965673 0	-0.000747347 -0.0964427 0	-0.000506846 -0.0963519 0	-0.000256028 -0.0962966 0	
-1.77135e-11 -0.0962781 0	0.000256028 -0.0962966 0	0.000506846 -0.0963519 0	0.000747347 -0.0964427 0	0.000972637 -0.0965673 0	
0.00117813 -0.0967231 0	0.00135964 -0.0969069 0	0.00151347 -0.097115 0	0.0016365 -0.0973431 0	0.00172621 -0.0975867 0	
0.00178027 -0.0977858 0	
-0.00133959 -0.09785 0	-0.00129891 -0.0977137 0	-0.00123141 -0.0975305 0	-0.00113884 -0.0973588 0	-0.00102309 -0.0972022 0	
-0.000886508 -0.0970639 0	-0.000731882 -0.0969467 0	-0.000562359 -0.0968529 0	-0.000381389 -0.0967846 0	-0.000192655 -0.096743 0	
-1.02498e-11 -0.0967291 0	0.000192655 -0.096743 0	0.000381389 -0.0967846 0	0.000562359 -0.0968529 0	0.000731882 -0.0969467 0	
0.000886508 -0.0970639 0	0.00102309 -0.0972022 0	0.00113884 -0.0973588 0	0.00123141 -0.0975305 0	0.00129891 -0.0977137 0	
0.00133959 -0.09785 0	
-0.001008 -0.0978983 0	-0.000977387 -0.0978093 0	-0.000926595 -0.0976715 0	-0.000856941 -0.0975423 0	-0.000769841 -0.0974244 0	
-0.00066707 -0.0973204 0	-0.00055072 -0.0972322 0	-0.000423159 -0.0971616 0	-0.000286984 -0.0971102 0	-0.000144968 -0.0970789 0	
-5.66933e-12 -0.0970684 0	0.000144968 -0.0970789 0	0.000286984 -0.0971102 0	0.000423159 -0.0971616 0	0.00055072 -0.0972322 0	
0.00066707 -0.0973204 0	0.000769841 -0.0974244 0	0.000856941 -0.0975423 0	0.000926595 -0.0976715 0	0.000977387 -0.0978093 0	
0.001008 -0.0978983 0	
-0.000758485 -0.0979346 0	-0.000735452 -0.0978813 0	-0.000697233 -0.0977775 0	-0.00064482 -0.0976803 0	-0.000579281 -0.0975917 0	
-0.000501949 -0.0975134 0	-0.0004144 -0.097447 0	-0.000318414 -0.0973939 0	-0.000215947 -0.0973552 0	-0.000109084 -0.0973317 0	
-3.58222e-12 -0.0973238 0	0.000109084 -0.0973317 0	0.000215947 -0.0973552 0	0.000318414 -0.0973939 0	0.0004144 -0.097447 0	
0.000501949 -0.0975134 0	0.000579281 -0.0975917 0	0.00064482 -0.0976803 0	0.000697233 -0.0977775 0	0.000735452 -0.0978813 0	
0.000758485 -0.0979346 0	
-0.000570735 -0.097962 0	-0.000553403 -0.0979354 0	-0.000524645 -0.0978574 0	-0.000485206 -0.0977842 0	-0.00043589 -0.0977175 0	
-0.000377701 -0.0976586 0	-0.000311823 -0.0976086 0	-0.000239597 -0.0975687 0	-0.000162493 -0.0975396 0	-8.20821e-05 -0.0975219 0	
-1.78755e-12 -0.0975159 0	8.20821e-05 -0.0975219 0	0.000162493 -0.0975396 0	0.000239597 -0.0975687 0	0.000311823 -0.0976086 0	
0.000377701 -0.0976586 0	0.00043589 -0.0977175 0	0.000485206 -0.0977842 0	0.000524645 -0.0978574 0	0.000553403 -0.0979354 0	
0.000570735 -0.097962 0	
-0.00042946 -0.0979826 0	-0.000416418 -0.0979762 0	-0.000394778 -0.0979174 0	-0.000365102 -0.0978624 0	-0.000327993 -0.0978122 0	
-0.000284208 -0.0977678 0	-0.000234637 -0.0977303 0	-0.000180289 -0.0977002 0	-0.000122271 -0.0976783 0	-6.17642e-05 -0.097665 0	
-8.48859e-13 -0.0976605 0	6.17642e-05 -0.097665 0	0.000122271 -0.0976783 0	0.000180289 -0.0977002 0	0.000234637 -0.0977303 0	
0.000284208 -0.0977678 0	0.000327993 -0.0978122 0	0.000365102 -0.0978624 0	0.000394778 -0.0979174 0	0.000416418 -0.0979762 0	
0.00042946 -0.0979826 0	
-0.000323154 -0.097998 0	-0.000313341 -0.0980068 0	-0.000297058 -0.0979626 0	-0.000274728 -0.0979212 0	-0.000246805 -0.0978834 0	
-0.000213857 -0.0978501 0	-0.000176557 -0.0978218 0	-0.000135662 -0.0977992 0	-9.20051e-05 -0.0977827 0	-4.64756e-05 -0.0977726 0	
-8.41136e-13 -0.0977693 0	4.64756e-05 -0.0977726 0	9.20051e-05 -0.0977827 0	0.000135662 -0.0977992 0	0.000176557 -0.0978218 0	
0.000213857 -0.0978501 0	0.000246805 -0.0978834 0	0.000274728 -0.0979212 0	0.000297058 -0.0979626 0	0.000313341 -0.0980068 0	
0.000323154 -0.097998 0	
-0.000243163 -0.0980097 0	-0.000235779 -0.0980299 0	-0.000223526 -0.0979966 0	-0.000206724 -0.0979655 0	-0.000185712 -0.097937 0	
-0.000160921 -0.0979119 0	-0.000132853 -0.0978906 0	-0.000102081 -0.0978736 0	-6.92309e-05 -0.0978612 0	-3.49714e-05 -0.0978537 0	
-3.81335e-13 -0.0978511 0	3.49714e-05 -0.0978537 0	6.92309e-05 -0.0978612 0	0.000102081 -0.0978736 0	0.000132853 -0.0978906 0	
0.000160921 -0.0979119 0	0.000185712 -0.097937 0	0.000206724 -0.0979655 0	0.000223526 -0.0979966 0	0.000235779 -0.0980299 0	
0.000243163 -0.0980097 0	
-0.000182972 -0.0980185 0	-0.000177416 -0.0980472 0	-0.000168196 -0.0980222 0	-0.000155553 -0.0979988 0	-0.000139743 -0.0979774 0	
-0.000121088 -0.0979585 0	-9.99677e-05 -0.0979425 0	-7.68127e-05 -0.0979297 0	-5.2094e-05 -0.0979203 0	-2.63148e-05 -0.0979147 0	
2.152e-13 -0.0979127 0	2.63148e-05 -0.0979147 0	5.2094e-05 -0.0979203 0	7.68127e-05 -0.0979297 0	9.99677e-05 -0.0979425 0	
0.000121088 -0.0979585 0	0.000139743 -0.0979774 0	0.000155553 -0.0979988 0	0.000168196 -0.0980222 0	0.000177416 -0.0980472 0	
0.000182972 -0.0980185 0	
-0.000137681 -0.0980251 0	-0.0001335 -0.0980603 0	-0.000126562 -0.0980415 0	-0.000117048 -0.0980238 0	-0.000105152 -0.0980077 0	
-9.11145e-05 -0.0979935 0	-7.52224e-05 -0.0979815 0	-5.7799e-05 -0.0979718 0	-3.9199e-05 -0.0979648 0	-1.98011e-05 -0.0979605 0	
-1.5798e-13 -0.0979591 0	1.98011e-05 -0.0979605 0	3.9199e-05 -0.0979648 0	5.7799e-05 -0.0979718 0	7.52224e-05 -0.0979815 0	
9.11145e-05 -0.0979935 0	0.000105152 -0.0980077 0	0.000117048 -0.0980238 0	0.000126562 -0.0980415 0	0.0001335 -0.0980603 0	
0.000137681 -0.0980251 0	
-0.0001036 -0.09803 0	-0.000100454 -0.0980701 0	-9.5234e-05 -0.098056 0	-8.80751e-05 -0.0980427 0	-7.91232e-05 -0.0980306 0	
-6.85607e-05 -0.0980199 0	-5.66024e-05 -0.0980108 0	-4.34919e-05 -0.0980036 0	-2.9496e-05 -0.0979983 0	-1.48997e-05 -0.0979951 0	
3.3133e-13 -0.097994 0	1.48997e-05 -0.0979951 0	2.9496e-05 -0.0979983 0	4.34919e-05 -0.0980036 0	5.66024e-05 -0.0980108 0	
6.85607e-05 -0.0980199 0	7.91232e-05 -0.0980306 0	8.80751e-05 -0.0980427 0	9.5234e-05 -0.098056 0	0.000100454 -0.0980701 0	
0.0001036 -0.09803 0	
-7.79558e-05 -0.0980338 0	-7.55884e-05 -0.0980775 0	-7.16604e-05 -0.0980669 0	-6.62736e-05 -0.0980569 0	-5.95376e-05 -0.0980478 0	
-5.15896e-05 -0.0980397 0	-4.25915e-05 -0.0980329 0	-3.27262e-05 -0.0980274 0	-2.21948e-05 -0.0980235 0	-1.12115e-05 -0.098021 0	
3.9457e-15 -0.0980202 0	1.12115e-05 -0.098021 0	2.21948e-05 -0.0980235 0	3.27262e-05 -0.0980274 0	4.25915e-05 -0.0980329 0	
5.15896e-05 -0.0980397 0	5.95376e-05 -0.0980478 0	6.62736e-05 -0.0980569 0	7.16604e-05 -0.0980669 0	7.55884e-05 -0.0980775 0	
7.79558e-05 -0.0980338 0	
-5.86591e-05 -0.0980366 0	-5.68778e-05 -0.0980831 0	-5.39221e-05 -0.0980751 0	-4.98687e-05 -0.0980675 0	-4.48001e-05 -0.0980607 0	
-3.88195e-05 -0.0980546 0	-3.20486e-05 -0.0980495 0	-2.46254e-05 -0.0980454 0	-1.67008e-05 -0.0980424 0	-8.43628e-06 -0.0980406 0	
1.05033e-13 -0.09804 0	8.43628e-06 -0.0980406 0	1.67008e-05 -0.0980424 0	2.46254e-05 -0.0980454 0	3.20486e-05 -0.0980495 0	
3.88195e-05 -0.0980546 0	4.48001e-05 -0.0980607 0	4.98687e-05 -0.0980675 0	5.39221e-05 -0.0980751 0	5.68778e-05 -0.0980831 0	
5.86591e-05 -0.0980366 0	
-4.4139e-05 -0.0980387 0	-4.27986e-05 -0.0980873 0	-4.05745e-05 -0.0980812 0	-3.75245e-05 -0.0980756 0	-3.37105e-05 -0.0980704 0	
-2.92103e-05 -0.0980659 0	-2.41155e-05 -0.098062 0	-1.85298e-05 -0.0980589 0	-1.25668e-05 -0.0980567 0	-6.34801e-06 -0.0980553 0	
-2.19286e-13 -0.0980548 0	6.34801e-06 -0.0980553 0	1.25668e-05 -0.0980567 0	1.85298e-05 -0.0980589 0	2.41155e-05 -0.098062 0	
2.92103e-05 -0.0980659 0	3.37105e-05 -0.0980704 0	3.75245e-05 -0.0980756 0	4.05745e-05 -0.0980812 0	4.27986e-05 -0.0980873 0	
4.4139e-05 -0.0980387 0	
-3.3213e-05 -0.0980403 0	-3.22044e-05 -0.0980904 0	-3.05309e-05 -0.0980859 0	-2.82358e-05 -0.0980816 0	-2.5366e-05 -0.0980777 0	
-2.19797e-05 -0.0980743 0	-1.81461e-05 -0.0980714 0	-1.3943e-05 -0.0980691 0	-9.45607e-06 -0.0980674 0	-4.77666e-06 -0.0980664 0	
5.41002e-14 -0.098066 0	4.77666e-06 -0.0980664 0	9.45607e-06 -0.0980674 0	1.3943e-05 -0.0980691 0	1.81461e-05 -0.0980714 0	
2.19797e-05 -0.0980743 0	2.5366e-05 -0.0980777 0	2.82358e-05 -0.0980816 0	3.05309e-05 -0.0980859 0	3.22044e-05 -0.0980904 0	
3.3213e-05 -0.0980403 0	
-2.49915e-05 -0.0980415 0	-2.42326e-05 -0.0980928 0	-2.29733e-05 -0.0980894 0	-2.12464e-05 -0.0980862 0	-1.90869e-05 -0.0980833 0	
-1.65389e-05 -0.0980807 0	-1.36542e-05 -0.0980785 0	-1.04916e-05 -0.0980767 0	-7.11534e-06 -0.0980755 0	-3.59425e-06 -0.0980747 0	
-1.17569e-13 -0.0980744 0	3.59425e-06 -0.0980747 0	7.11534e-06 -0.0980755 0	1.04916e-05 -0.0980767 0	1.36542e-05 -0.0980785 0	
1.65389e-05 -0.0980807 0	1.90869e-05 -0.0980833 0	2.12464e-05 -0.0980862 0	2.29733e-05 -0.0980894 0	2.42326e-05 -0.0980928 0	
2.49915e-05 -0.0980415 0	
-1.88051e-05 -0.0980424 0	-1.8234e-05 -0.0980946 0	-1.72865e-05 -0.098092 0	-1.5987e-05 -0.0980896 0	-1.43621e-05 -0.0980874 0	
-1.24448e-05 -0.0980855 0	-1.02742e-05 -0.0980838 0	-7.89447e-06 -0.0980825 0	-5.35399e-06 -0.0980815 0	-2.70452e-06 -0.0980809 0	
-2.72675e-13 -0.0980808 0	2.70452e-06 -0.0980809 0	5.35399e-06 -0.0980815 0	7.89447e-06 -0.0980825 0	1.02742e-05 -0.0980838 0	
1.24448e-05 -0.0980855 0	1.43621e-05 -0.0980874 0	1.5987e-05 -0.0980896 0	1.72865e-05 -0.098092 0	1.8234e-05 -0.0980946 0	
1.88051e-05 -0.0980424 0	
-1.41499e-05 -0.098043 0	-1.37202e-05 -0.0980959 0	-1.30072e-05 -0.098094 0	-1.20294e-05 -0.0980922 0	-1.08068e-05 -0.0980905 0	
-9.36413e-06 -0.0980891 0	-7.73086e-06 -0.0980878 0	-5.9402e-06 -0.0980868 0	-4.02861e-06 -0.0980861 0	-2.03502e-06 -0.0980857 0	
4.79259e-14 -0.0980855 0	2.03502e-06 -0.0980857 0	4.02861e-06 -0.0980861 0	5.9402e-06 -0.0980868 0	7.73086e-06 -0.0980878 0	
9.36413e-06 -0.0980891 0	1.08068e-05 -0.0980905 0	1.20294e-05 -0.0980922 0	1.30072e-05 -0.098094 0	1.37202e-05 -0.0980959 0	
1.41499e-05 -0.098043 0	
-1.06469e-05 -0.0980436 0	-1.03236e-05 -0.0980969 0	-9.78712e-06 -0.0980955 0	-9.05141e-06 -0.0980941 0	-8.13143e-06 -0.0980929 0	
-7.04593e-06 -0.0980918 0	-5.81699e-06 -0.0980908 0	-4.46963e-06 -0.0980901 0	-3.03128e-06 -0.0980895 0	-1.53123e-06 -0.0980892 0	
-4.56456e-13 -0.0980891 0	1.53123e-06 -0.0980892 0	3.03128e-06 -0.0980895 0	4.46963e-06 -0.0980901 0	5.81699e-06 -0.0980908 0	
7.04593e-06 -0.0980918 0	8.13143e-06 -0.0980929 0	9.05141e-06 -0.0980941 0	9.78712e-06 -0.0980955 0	1.03236e-05 -0.0980969 0	
1.06469e-05 -0.0980436 0	
-8.0109e-06 -0.0980439 0	-7.76763e-06 -0.0980977 0	-7.36397e-06 -0.0980966 0	-6.81041e-06 -0.0980956 0	-6.11821e-06 -0.0980946 0	
-5.30146e-06 -0.0980938 0	-4.37679e-06 -0.0980931 0	-3.36301e-06 -0.0980925 0	-2.28078e-06 -0.0980921 0	-1.15212e-06 -0.0980919 0	
-6.16871e-13 -0.0980918 0	1.15212e-06 -0.0980919 0	2.28078e-06 -0.0980921 0	3.36301e-06 -0.0980925 0	4.37679e-06 -0.0980931 0	
5.30146e-06 -0.0980938 0	6.11821e-06 -0.0980946 0	6.81041e-06 -0.0980956 0	7.36397e-06 -0.0980966 0	7.76763e-06 -0.0980977 0	
8.0109e-06 -0.0980439 0	
-6.02719e-06 -0.0980442 0	-5.84416e-06 -0.0980982 0	-5.54046e-06 -0.0980974 0	-5.12398e-06 -0.0980967 0	-4.60318e-06 -0.098096 0	
-3.98868e-06 -0.0980953 0	-3.29298e-06 -0.0980948 0	-2.53025e-06 -0.0980944 0	-1.716e-06 -0.0980941 0	-8.66823e-07 -0.0980939 0	
-2.08246e-13 -0.0980938 0	8.66824e-07 -0.0980939 0	1.716e-06 -0.0980941 0	2.53024e-06 -0.0980944 0	3.29298e-06 -0.0980948 0	
3.98868e-06 -0.0980953 0	4.60318e-06 -0.098096 0	5.12398e-06 -0.0980967 0	5.54046e-06 -0.0980974 0	5.84416e-06 -0.0980982 0	
6.02719e-06 -0.0980442 0	
-4.53427e-06 -0.0980444 0	-4.39658e-06 -0.0980987 0	-4.1681e-06 -0.0980981 0	-3.85478e-06 -0.0980975 0	-3.46299e-06 -0.098097 0	
-3.00069e-06 -0.0980965 0	-2.47732e-06 -0.0980961 0	-1.90351e-06 -0.0980958 0	-1.29095e-06 -0.0980955 0	-6.52113e-07 -0.0980954 0	
4.94384e-13 -0.0980954 0	6.52113e-07 -0.0980954 0	1.29095e-06 -0.0980955 0	1.90351e-06 -0.0980958 0	2.47732e-06 -0.0980961 0	
3.0007e-06 -0.0980965 0	3.46299e-06 -0.098097 0	3.85478e-06 -0.0980975 0	4.1681e-06 -0.0980981 0	4.39658e-06 -0.0980987 0	
4.53427e-06 -0.0980444 0	
-3.41057e-06 -0.0980446 0	-3.307e-06 -0.098099 0	-3.13515e-06 -0.0980985 0	-2.89947e-06 -0.0980981 0	-2.60478e-06 -0.0980977 0	
-2.25705e-06 -0.0980974 0	-1.86338e-06 -0.0980971 0	-1.43177e-06 -0.0980968 0	-9.71023e-07 -0.0980966 0	-4.90504e-07 -0.0980965 0	
-1.65886e-13 -0.0980965 0	4.90504e-07 -0.0980965 0	9.71023e-07 -0.0980966 0	1.43177e-06 -0.0980968 0	1.86338e-06 -0.0980971 0	
2.25705e-06 -0.0980974 0	2.60478e-06 -0.0980977 0	2.89947e-06 -0.0980981 0	3.13515e-06 -0.0980985 0	3.307e-06 -0.098099 0	
3.41057e-06 -0.0980446 0	
-2.56459e-06 -0.0980447 0	-2.48671e-06 -0.0980992 0	-2.35748e-06 -0.0980989 0	-2.18027e-06 -0.0980986 0	-1.95867e-06 -0.0980983 0	
-1.69719e-06 -0.098098 0	-1.40117e-06 -0.0980978 0	-1.07663e-06 -0.0980976 0	-7.30163e-07 -0.0980975 0	-3.68836e-07 -0.0980974 0	
-6.31109e-14 -0.0980974 0	3.68836e-07 -0.0980974 0	7.30163e-07 -0.0980975 0	1.07663e-06 -0.0980976 0	1.40117e-06 -0.0980978 0	
1.6972e-06 -0.098098 0	1.95867e-06 -0.0980983 0	2.18027e-06 -0.0980986 0	2.35748e-06 -0.0980989 0	2.48671e-06 -0.0980992 0	
2.56459e-06 -0.0980447 0	
-1.92743e-06 -0.0980448 0	-1.8689e-06 -0.0980994 0	-1.77178e-06 -0.0980992 0	-1.6386e-06 -0.0980989 0	-1.47205e-06 -0.0980987 0	
-1.27554e-06 -0.0980985 0	-1.05306e-06 -0.0980983 0	-8.09146e-07 -0.0980982 0	-5.48759e-07 -0.0980981 0	-2.77201e-07 -0.098098 0	
-2.73053e-13 -0.098098 0	2.77201e-07 -0.098098 0	5.48759e-07 -0.0980981 0	8.09146e-07 -0.0980982 0	1.05306e-06 -0.0980983 0	
1.27554e-06 -0.0980985 0	1.47205e-06 -0.0980987 0	1.6386e-06 -0.0980989 0	1.77178e-06 -0.0980992 0	1.8689e-06 -0.0980994 0	
1.92743e-06 -0.0980448 0	
-1.44723e-06 -0.0980449 0	-1.40328e-06 -0.0980996 0	-1.33036e-06 -0.0980994 0	-1.23035e-06 -0.0980992 0	-1.1053e-06 -0.098099 0	
-9.57749e-07 -0.0980989 0	-7.907e-07 -0.0980987 0	-6.07554e-07 -0.0980986 0	-4.1204e-07 -0.0980986 0	-2.08139e-07 -0.0980985 0	
1.65778e-13 -0.0980985 0	2.08139e-07 -0.0980985 0	4.1204e-07 -0.0980986 0	6.07554e-07 -0.0980986 0	7.907e-07 -0.0980987 0	
9.57748e-07 -0.0980989 0	1.1053e-06 -0.098099 0	1.23035e-06 -0.0980992 0	1.33036e-06 -0.0980994 0	1.40328e-06 -0.0980996 0	
1.44723e-06 -0.0980449 0	
-1.08487e-06 -0.0980449 0	-1.05192e-06 -0.0980997 0	-9.9726e-07 -0.0980995 0	-9.22295e-07 -0.0980994 0	-8.28554e-07 -0.0980993 0	
-7.17946e-07 -0.0980991 0	-5.92723e-07 -0.098099 0	-4.55434e-07 -0.098099 0	-3.08873e-07 -0.0980989 0	-1.56024e-07 -0.0980989 0	
6.08533e-14 -0.0980989 0	1.56024e-07 -0.0980989 0	3.08873e-07 -0.0980989 0	4.55434e-07 -0.098099 0	5.92722e-07 -0.098099 0	
7.17946e-07 -0.0980991 0	8.28554e-07 -0.0980993 0	9.22295e-07 -0.0980994 0	9.97261e-07 -0.0980995 0	1.05192e-06 -0.0980997 0	
1.08487e-06 -0.0980449 0	
-8.10849e-07 -0.098045 0	-7.86226e-07 -0.0980997 0	-7.45369e-07 -0.0980996 0	-6.89338e-07 -0.0980995 0	-6.19275e-07 -0.0980994 0	
-5.36604e-07 -0.0980994 0	-4.43011e-07 -0.0980993 0	-3.40399e-07 -0.0980992 0	-2.30857e-07 -0.0980992 0	-1.16615e-07 -0.0980992 0	
2.82435e-13 -0.0980991 0	1.16616e-07 -0.0980992 0	2.30857e-07 -0.0980992 0	3.40398e-07 -0.0980992 0	4.43011e-07 -0.0980993 0	
5.36604e-07 -0.0980994 0	6.19275e-07 -0.0980994 0	6.89339e-07 -0.0980995 0	7.45369e-07 -0.0980996 0	7.86226e-07 -0.0980997 0	
8.10849e-07 -0.098045 0	
-6.02855e-07 -0.098045 0	-5.84548e-07 -0.0980998 0	-5.54171e-07 -0.0980997 0	-5.12514e-07 -0.0980996 0	-4.60422e-07 -0.0980996 0	
-3.98958e-07 -0.0980995 0	-3.29373e-07 -0.0980995 0	-2.53081e-07 -0.0980994 0	-1.71639e-07 -0.0980994 0	-8.67019e-08 -0.0980994 0	
2.19077e-13 -0.0980993 0	8.67018e-08 -0.0980994 0	1.71639e-07 -0.0980994 0	2.53081e-07 -0.0980994 0	3.29372e-07 -0.0980995 0	
3.98958e-07 -0.0980995 0	4.60423e-07 -0.0980996 0	5.12514e-07 -0.0980996 0	5.54171e-07 -0.0980997 0	5.84548e-07 -0.0980998 0	
6.02855e-07 -0.098045 0	
-4.43951e-07 -0.098045 0	-4.30469e-07 -0.0980998 0	-4.08099e-07 -0.0980998 0	-3.77422e-07 -0.0980997 0	-3.39061e-07 -0.0980997 0	
-2.93798e-07 -0.0980996 0	-2.42554e-07 -0.0980996 0	-1.86373e-07 -0.0980995 0	-1.26397e-07 -0.0980995 0	-6.38481e-08 -0.0980995 0	
-5.01916e-14 -0.0980995 0	6.38484e-08 -0.0980995 0	1.26397e-07 -0.0980995 0	1.86373e-07 -0.0980995 0	2.42554e-07 -0.0980996 0	
2.93799e-07 -0.0980996 0	3.39061e-07 -0.0980997 0	3.77421e-07 -0.0980997 0	4.08099e-07 -0.0980998 0	4.30469e-07 -0.0980998 0	
4.4395e-07 -0.098045 0	
-3.21196e-07 -0.098045 0	-3.11443e-07 -0.0980999 0	-2.95258e-07 -0.0980998 0	-2.73063e-07 -0.0980998 0	-2.45309e-07 -0.0980997 0	
-2.12562e-07 -0.0980997 0	-1.75487e-07 -0.0980997 0	-1.3484e-07 -0.0980996 0	-9.14479e-08 -0.0980996 0	-4.6194e-08 -0.0980996 0	
1.63772e-13 -0.0980996 0	4.61938e-08 -0.0980996 0	9.14479e-08 -0.0980996 0	1.3484e-07 -0.0980996 0	1.75487e-07 -0.0980997 0	
2.12561e-07 -0.0980997 0	2.45309e-07 -0.0980997 0	2.73063e-07 -0.0980998 0	2.95258e-07 -0.0980998 0	3.11443e-07 -0.0980999 0	
3.21196e-07 -0.098045 0	
-2.24597e-07 -0.0980451 0	-2.17776e-07 -0.0980999 0	-2.06459e-07 -0.0980999 0	-1.90939e-07 -0.0980998 0	-1.71533e-07 -0.0980998 0	
-1.48634e-07 -0.0980998 0	-1.22709e-07 -0.0980997 0	-9.42867e-08 -0.0980997 0	-6.39447e-08 -0.0980997 0	-3.23014e-08 -0.0980997 0	
-1.75459e-13 -0.0980997 0	3.23011e-08 -0.0980997 0	6.39451e-08 -0.0980997 0	9.42872e-08 -0.0980997 0	1.22709e-07 -0.0980997 0	
1.48633e-07 -0.0980998 0	1.71533e-07 -0.0980998 0	1.9094e-07 -0.0980998 0	2.06459e-07 -0.0980999 0	2.17776e-07 -0.0980999 0	
2.24597e-07 -0.0980451 0	
-1.46285e-07 -0.0980451 0	-1.41843e-07 -0.0980999 0	-1.34472e-07 -0.0980999 0	-1.24364e-07 -0.0980999 0	-1.11724e-07 -0.0980998 0	
-9.68092e-08 -0.0980998 0	-7.99242e-08 -0.0980998 0	-6.14111e-08 -0.0980998 0	-4.16484e-08 -0.0980998 0	-2.10386e-08 -0.0980997 0	
-3.26636e-13 -0.0980997 0	2.10386e-08 -0.0980997 0	4.16486e-08 -0.0980998 0	6.14113e-08 -0.0980998 0	7.99243e-08 -0.0980998 0	
9.68089e-08 -0.0980998 0	1.11724e-07 -0.0980998 0	1.24364e-07 -0.0980999 0	1.34472e-07 -0.0980999 0	1.41843e-07 -0.0980999 0	
1.46286e-07 -0.0980451 0	
-7.98863e-08 -0.0980451 0	-7.746e-08 -0.0980999 0	-7.34348e-08 -0.0980999 0	-6.79146e-08 -0.0980999 0	-6.10124e-08 -0.0980999 0	
-5.28675e-08 -0.0980998 0	-4.36456e-08 -0.0980998 0	-3.35366e-08 -0.0980998 0	-2.27448e-08 -0.0980998 0	-1.1489e-08 -0.0980998 0	
2.21344e-13 -0.0980998 0	1.14891e-08 -0.0980998 0	2.27446e-08 -0.0980998 0	3.35367e-08 -0.0980998 0	4.36457e-08 -0.0980998 0	
5.28673e-08 -0.0980998 0	6.10123e-08 -0.0980999 0	6.79146e-08 -0.0980999 0	7.34349e-08 -0.0980999 0	7.74599e-08 -0.0980999 0	
7.98863e-08 -0.0980451 0	
-1.9992e-08 -0.0980451 0	-1.93845e-08 -0.0980999 0	-1.83776e-08 -0.0980999 0	-1.69963e-08 -0.0980999 0	-1.52686e-08 -0.0980999 0	
-1.32298e-08 -0.0980998 0	-1.09224e-08 -0.0980998 0	-8.39266e-09 -0.0980998 0	-5.69163e-09 -0.0980998 0	-2.87511e-09 -0.0980998 0	
-6.3213e-16 -0.0980998 0	2.87505e-09 -0.0980998 0	5.69185e-09 -0.0980998 0	8.39261e-09 -0.0980998 0	1.09226e-08 -0.0980998 0	
1.32301e-08 -0.0980998 0	1.52683e-08 -0.0980999 0	1.6996e-08 -0.0980999 0	1.83772e-08 -0.0980999 0	1.93847e-08 -0.0980999 0	
1.99922e-08 -0.0980451 0	
3.82742e-08 -0.0980451 0	3.71127e-08 -0.0980999 0	3.51834e-08 -0.0980999 0	3.25391e-08 -0.0980999 0	2.92321e-08 -0.0980999 0	
2.53291e-08 -0.0980998 0	2.09114e-08 -0.0980998 0	1.60675e-08 -0.0980998 0	1.08973e-08 -0.0980998 0	5.50486e-09 -0.0980998 0	
2.68421e-15 -0.0980998 0	-5.50497e-09 -0.0980998 0	-1.08973e-08 -0.0980998 0	-1.60675e-08 -0.0980998 0	-2.09112e-08 -0.0980998 0	
-2.53289e-08 -0.0980998 0	-2.92322e-08 -0.0980999 0	-3.25392e-08 -0.0980999 0	-3.51832e-08 -0.0980999 0	-3.71125e-08 -0.0980999 0	
-3.82743e-08 -0.0980451 0	
9.9657e-08 -0.0980451 0	9.66313e-08 -0.0980999 0	9.161e-08 -0.0980999 0	8.47243e-08 -0.0980999 0	7.6112e-08 -0.0980998 0	
6.59509e-08 -0.0980998 0	5.44486e-08 -0.0980998 0	4.18365e-08 -0.0980998 0	2.83736e-08 -0.0980998 0	1.43328e-08 -0.0980998 0	