# vtk DataFile Version 2.0
Titre
ASCII
DATASET STRUCTURED_POINTS
DIMENSIONS 21 101 1
ORIGIN 0.0 0.0 0.0
SPACING 0.005 0.01 0.0
POINT_DATA 2121 
VECTORS velocity float

646.018 -619.491 0	-710.209 665.075 0	-3.74004 6.23538 0	-2.11255 4.14016 0	-1.11501 3.9067 0	
-0.492637 3.34742 0	-0.0235487 3.13943 0	0.275412 2.90985 0	0.606985 2.77658 0	0.801457 2.7139 0	
1.07208 2.68426 0	1.26266 2.73629 0	1.54796 2.81837 0	1.82672 2.9853 0	2.22969 3.23512 0	
2.75391 3.60503 0	3.58782 4.21814 0	5.13095 5.41901 0	11.22 9.75583 0	604.404 226.297 0	
9.20542e+07 2.75668e+07 0	
-663326 778920 0	112.521 -123.681 0	-1138.21 982.996 0	22.2353 -13.0808 0	-8.14715 4.73147 0	
-2.53434 4.12219 0	-2.25537 4.18537 0	-1.20249 3.99839 0	-0.532729 3.87286 0	0.117615 3.77689 0	
0.742611 3.73451 0	1.37944 3.7467 0	1.98639 3.83556 0	2.74529 3.93632 0	3.4766 4.02018 0	
4.37618 3.91646 0	4.78528 2.24558 0	2.82237 -9.20855 0	-42.5135 -96.5109 0	5538.12 -223.969 0	
-552.727 99.8071 0	
-2406.57 -849.282 0	-23.6925 2.10279 0	-9.27064 -0.800528 0	-5.49128 -1.43871 0	-4.63635 0.0884056 0	
-4.35256 1.01683 0	-3.05507 1.40619 0	-2.2491 1.73189 0	-1.40149 1.91199 0	-0.626359 2.01295 0	
0.125926 2.048 0	0.87219 2.02922 0	1.63752 1.95139 0	2.42016 1.8041 0	3.29662 1.56191 0	
4.2234 1.20387 0	5.34132 0.845322 0	6.5069 0.00580433 0	7.98419 -1.12086 0	17.7231 3.78138 0	
1239.66 -112.45 0	
17.2667 -5.28179 0	0.715805 -12.3442 0	-2.92602 -8.26955 0	-3.40319 -5.3381 0	-3.152 -3.65844 0	
-2.74791 -2.54476 0	-2.2663 -1.76657 0	-1.74469 -1.22609 0	-1.20676 -0.866154 0	-0.662756 -0.649772 0	
-0.113243 -0.572503 0	0.4389 -0.62698 0	0.991671 -0.818145 0	1.54057 -1.14405 0	2.07861 -1.63576 0	
2.59347 -2.3426 0	3.06453 -3.35512 0	3.45495 -4.88653 0	3.37915 -7.69115 0	0.437308 -12.7549 0	
-23.9399 -7.38907 0	
2.7085 -6.17456 0	3.06884 -6.30148 0	1.38016 -6.03413 0	0.167434 -5.17698 0	-0.498271 -4.28464 0	
-0.783955 -3.50202 0	-0.829592 -2.87809 0	-0.729695 -2.41064 0	-0.542936 -2.08636 0	-0.307094 -1.8927 0	
-0.048423 -1.82129 0	0.212265 -1.86869 0	0.454762 -2.0373 0	0.654548 -2.33473 0	0.776918 -2.77358 0	
0.767964 -3.36895 0	0.538587 -4.13047 0	-0.0517258 -5.02625 0	-1.18208 -5.92997 0	-2.85713 -6.31603 0	
-2.59749 -6.19485 0	
2.30883 -3.10891 0	3.53142 -3.58061 0	2.72814 -4.15542 0	1.62844 -3.90368 0	0.895323 -3.55233 0	
0.427154 -3.17297 0	0.143965 -2.82233 0	-0.0037793 -2.53164 0	-0.0590034 -2.31631 0	-0.0568452 -2.18248 0	
-0.0264768 -2.13221 0	0.00611342 -2.16604 0	0.0151515 -2.28377 0	-0.0279784 -2.48401 0	-0.157723 -2.76202 0	
-0.416701 -3.10486 0	-0.855503 -3.48498 0	-1.55482 -3.84995 0	-2.62528 -4.12864 0	-3.43963 -3.61991 0	
-2.25831 -3.16174 0	
2.06806 -1.20802 0	3.28254 -2.04591 0	2.90192 -2.63176 0	2.04492 -2.70559 0	1.4094 -2.64447 0	
0.962853 -2.52388 0	0.633212 -2.38445 0	0.393059 -2.25142 0	0.220425 -2.14392 0	0.0922509 -2.07343 0	
-0.0132897 -2.04599 0	-0.117235 -2.06372 0	-0.240621 -2.1252 0	-0.405314 -2.22518 0	-0.634592 -2.35326 0	
-0.951102 -2.49157 0	-1.38322 -2.61626 0	-2.00409 -2.68824 0	-2.85102 -2.63354 0	-3.24012 -2.07224 0	
-2.04791 -1.24023 0	
1.72798 -0.427305 0	2.7414 -1.00299 0	2.53846 -1.5598 0	1.92903 -1.77073 0	1.45133 -1.85777 0	
1.08911 -1.88163 0	0.791619 -1.87058 0	0.543818 -1.84218 0	0.336849 -1.81087 0	0.157988 -1.78713 0	
-0.00624678 -1.77678 0	-0.169525 -1.78194 0	-0.345569 -1.80104 0	-0.548032 -1.82887 0	-0.789982 -1.85555 0	
-1.08088 -1.86722 0	-1.43644 -1.84684 0	-1.90815 -1.76669 0	-2.51467 -1.56643 0	-2.72326 -1.02099 0	
-1.72062 -0.442997 0	
1.38298 -0.0558372 0	2.137 -0.412259 0	2.00611 -0.872182 0	1.60005 -1.11484 0	1.27285 -1.25982 0	
1.00476 -1.35106 0	0.764631 -1.40606 0	0.547663 -1.43521 0	0.351556 -1.44823 0	0.17042 -1.45262 0	
-0.00274833 -1.4527 0	-0.175401 -1.45005 0	-0.355038 -1.44344 0	-0.54881 -1.42891 0	-0.762868 -1.3993 0	
-0.999899 -1.3451 0	-1.26514 -1.25611 0	-1.59015 -1.11497 0	-1.99578 -0.877697 0	-2.12984 -0.422596 0	
-1.3804 -0.0640017 0	
1.06789 0.120429 0	1.58314 -0.111082 0	1.48327 -0.46659 0	1.22881 -0.686898 0	1.01983 -0.838368 0	
0.832689 -0.95001 0	0.651915 -1.03012 0	0.478609 -1.08403 0	0.313397 -1.11774 0	0.154411 -1.13589 0	
-0.00111863 -1.1412 0	-0.156391 -1.1347 0	-0.314638 -1.11557 0	-0.478726 -1.08126 0	-0.650682 -1.0273 0	
-0.830099 -0.947797 0	-1.01612 -0.837424 0	-1.22444 -0.687885 0	-1.47914 -0.470087 0	-1.58064 -0.116583 0	
-1.06723 0.11618 0	
0.793578 0.188971 0	1.11884 0.0213104 0	1.04204 -0.244818 0	0.89369 -0.422747 0	0.767546 -0.556903 0	
0.642438 -0.663813 0	0.513348 -0.745538 0	0.383459 -0.804529 0	0.254469 -0.844076 0	0.126632 -0.86667 0	
-0.000409859 -0.873842 0	-0.127332 -0.866161 0	-0.25483 -0.843163 0	-0.383315 -0.803411 0	-0.51262 -0.744484 0	
-0.641163 -0.663129 0	-0.765883 -0.556877 0	-0.891911 -0.423626 0	-1.04058 -0.246787 0	-1.1182 0.018528 0	
-0.793646 0.186812 0	
0.563706 0.194414 0	0.751846 0.0589 0	0.699231 -0.134393 0	0.620922 -0.268521 0	0.548726 -0.377687 0	
0.468497 -0.468766 0	0.380584 -0.540792 0	0.288171 -0.594725 0	0.193182 -0.63206 0	0.0968095 -0.65393 0	
-0.000126758 -0.661062 0	-0.0970115 -0.653732 0	-0.193239 -0.631715 0	-0.288019 -0.594326 0	-0.3802 -0.540464 0	
-0.467916 -0.46864 0	-0.54804 -0.377882 0	-0.620273 -0.269116 0	-0.698817 -0.135428 0	-0.751871 0.0575625 0	
-0.563988 0.19337 0	
0.376603 0.163113 0	0.475258 0.0462392 0	0.446631 -0.0888314 0	0.411619 -0.185548 0	0.373166 -0.269744 0	
0.324406 -0.341924 0	0.267501 -0.400299 0	0.204963 -0.445052 0	0.138589 -0.47663 0	0.0698404 -0.495392 0	
-2.69291e-05 -0.50159 0	-0.0698739 -0.495325 0	-0.138566 -0.47652 0	-0.204862 -0.444939 0	-0.26732 -0.400236 0	
-0.324168 -0.341965 0	-0.372918 -0.269932 0	-0.411431 -0.185902 0	-0.446593 -0.0893472 0	-0.475456 0.045633 0	
-0.376898 0.162646 0	
0.230048 0.111429 0	0.276464 0.00974471 0	0.267692 -0.0801163 0	0.257467 -0.147694 0	0.239694 -0.209964 0	
0.212457 -0.264232 0	0.177934 -0.308887 0	0.137958 -0.343705 0	0.0940645 -0.368596 0	0.0476474 -0.383523 0	
8.96954e-07 -0.38849 0	-0.0476386 -0.383506 0	-0.0940368 -0.368572 0	-0.137906 -0.343691 0	-0.17786 -0.308903 0	
-0.212376 -0.264298 0	-0.239629 -0.210092 0	-0.25745 -0.147884 0	-0.26776 -0.0803568 0	-0.276656 0.00949459 0	
-0.230283 0.111254 0	
0.120544 0.0507555 0	0.140322 -0.0352149 0	0.145146 -0.091578 0	0.147917 -0.137532 0	0.142595 -0.18181 0	
0.12964 -0.220854 0	0.110677 -0.253468 0	0.0870215 -0.279236 0	0.0599052 -0.297841 0	0.0305166 -0.309077 0	
4.21026e-06 -0.312833 0	-0.0305063 -0.309076 0	-0.0598903 -0.297844 0	-0.0870019 -0.279247 0	-0.110656 -0.253495 0	
-0.129625 -0.220903 0	-0.142598 -0.181882 0	-0.14795 -0.137623 0	-0.145224 -0.0916788 0	-0.140462 -0.0353015 0	
-0.120707 0.0507151 0	
0.0431547 -0.0109483 0	0.0517138 -0.0802835 0	0.0640736 -0.113182 0	0.0729045 -0.143485 0	0.0748219 -0.173686 0	
0.0709674 -0.200622 0	0.0624124 -0.223445 0	0.0500933 -0.241687 0	0.034956 -0.25497 0	0.0179457 -0.263038 0	
1.40338e-06 -0.265744 0	-0.0179428 -0.263041 0	-0.0349531 -0.254977 0	-0.0500916 -0.241699 0	-0.0624144 -0.223464 0	
-0.070977 -0.200649 0	-0.0748439 -0.17372 0	-0.0729439 -0.143522 0	-0.0641346 -0.113215 0	-0.051803 -0.0803006 0	
-0.043258 -0.0109339 0	
-0.00793433 -0.0685464 0	-0.00262588 -0.121442 0	0.012683 -0.138828 0	0.0237417 -0.157974 0	0.0295619 -0.177593 0	
0.0311834 -0.195342 0	0.0292748 -0.210609 0	0.0244958 -0.222951 0	0.0175442 -0.232013 0	0.00913647 -0.237547 0	
-1.45554e-06 -0.239409 0	-0.0091397 -0.237549 0	-0.0175485 -0.232017 0	-0.0245022 -0.222958 0	-0.0292849 -0.210619 0	
-0.0311989 -0.195354 0	-0.0295846 -0.177605 0	-0.0237732 -0.157984 0	-0.012724 -0.138832 0	0.00257369 -0.121433 0	
0.00787403 -0.0685157 0	
-0.0386917 -0.119189 0	-0.0333209 -0.157141 0	-0.0179517 -0.164851 0	-0.00667877 -0.176162 0	0.000914561 -0.188116 0	
0.00554554 -0.199156 0	0.00762108 -0.208826 0	0.00759561 -0.216747 0	0.00596595 -0.222617 0	0.00325397 -0.226224 0	
-3.0141e-06 -0.227441 0	-0.00326029 -0.226225 0	-0.00597319 -0.222619 0	-0.00760446 -0.216749 0	-0.00763229 -0.208829 0	
-0.00555983 -0.199159 0	-0.000932524 -0.188117 0	0.00665693 -0.176159 0	0.0179264 -0.164843 0	0.0332924 -0.157125 0	
0.038659 -0.119159 0	
-0.054618 -0.161743 0	-0.0483456 -0.18712 0	-0.0344332 -0.189153 0	-0.0239473 -0.195081 0	-0.0159049 -0.201685 0	
-0.00988834 -0.207997 0	-0.00565539 -0.213671 0	-0.00290324 -0.218404 0	-0.00129078 -0.221956 0	-0.000451711 -0.224156 0	
-3.4341e-06 -0.224901 0	0.000444659 -0.224156 0	0.00128318 -0.221956 0	0.00289473 -0.218403 0	0.00564567 -0.21367 0	
0.00987717 -0.207995 0	0.0158923 -0.201681 0	0.0239334 -0.195074 0	0.0344186 -0.189142 0	0.0483311 -0.187105 0	
0.0546017 -0.161718 0	
-0.060365 -0.196237 0	-0.0534168 -0.211726 0	-0.0415677 -0.210674 0	-0.0323148 -0.213024 0	-0.0246032 -0.216037 0	
-0.0182258 -0.219137 0	-0.0130449 -0.222061 0	-0.00886742 -0.224581 0	-0.0054686 -0.226513 0	-0.00260118 -0.227725 0	
-3.17867e-06 -0.228138 0	0.00259474 -0.227725 0	0.0054619 -0.226512 0	0.00886034 -0.22458 0	0.0130373 -0.222059 0	
0.0182178 -0.219133 0	0.0245948 -0.216032 0	0.0323064 -0.213017 0	0.0415597 -0.210665 0	0.05341 -0.211714 0	
0.0603578 -0.196219 0	
-0.059597 -0.223392 0	-0.0524947 -0.231565 0	-0.042793 -0.229024 0	-0.0349143 -0.229105 0	-0.0279496 -0.22982 0	
-0.0218209 -0.230828 0	-0.0164571 -0.231939 0	-0.0117428 -0.232984 0	-0.00753721 -0.233828 0	-0.00368102 -0.234374 0	
-2.63154e-06 -0.234562 0	0.00367573 -0.234373 0	0.00753186 -0.233827 0	0.0117374 -0.232982 0	0.0164517 -0.231936 0	
0.0218155 -0.230824 0	0.0279443 -0.229815 0	0.0349094 -0.229098 0	0.0427889 -0.229016 0	0.052492 -0.231556 0	
0.0595944 -0.223379 0	
-0.0550176 -0.244122 0	-0.0482542 -0.247402 0	-0.0405162 -0.24422 0	-0.0339856 -0.242963 0	-0.0279483 -0.242297 0	
-0.0223977 -0.24202 0	-0.0173049 -0.241996 0	-0.0126075 -0.242106 0	-0.00822382 -0.242255 0	-0.00405738 -0.242372 0	
-2.02899e-06 -0.242416 0	0.00405334 -0.242372 0	0.00821981 -0.242254 0	0.0126036 -0.242104 0	0.0173011 -0.241993 0	
0.0223942 -0.242016 0	0.0279451 -0.242293 0	0.0339829 -0.242958 0	0.0405144 -0.244214 0	0.0482534 -0.247396 0	
0.0550173 -0.244114 0	
-0.0484327 -0.258747 0	-0.0424501 -0.260026 0	-0.0363781 -0.256516 0	-0.0310808 -0.254559 0	-0.0260054 -0.253142 0	
-0.0211792 -0.252139 0	-0.0165993 -0.251457 0	-0.0122386 -0.251016 0	-0.00805521 -0.250749 0	-0.0039963 -0.250608 0	
-1.4883e-06 -0.250564 0	0.00399335 -0.250608 0	0.00805233 -0.250748 0	0.0122358 -0.251014 0	0.0165967 -0.251455 0	
0.0211769 -0.252136 0	0.0260035 -0.253139 0	0.0310794 -0.254556 0	0.0363773 -0.256512 0	0.0424502 -0.260022 0	
0.0484332 -0.258742 0	
-0.0412623 -0.269543 0	-0.0361354 -0.269712 0	-0.0314542 -0.266262 0	-0.0272385 -0.264035 0	-0.0230746 -0.262284 0	
-0.0190044 -0.260931 0	-0.0150405 -0.259915 0	-0.0111777 -0.259185 0	-0.00740042 -0.258695 0	-0.00368466 -0.258414 0	
-1.05184e-06 -0.258322 0	0.00368258 -0.258414 0	0.00739842 -0.258694 0	0.0111759 -0.259183 0	0.0150388 -0.259914 0	
0.019003 -0.260929 0	0.0230735 -0.262282 0	0.0272378 -0.264033 0	0.0314539 -0.266259 0	0.0361358 -0.269709 0	
0.0412631 -0.26954 0	
-0.0342701 -0.277457 0	-0.0299738 -0.277025 0	-0.0264224 -0.273852 0	-0.0231248 -0.271625 0	-0.0197777 -0.269804 0	
-0.0164279 -0.268343 0	-0.0130958 -0.267206 0	-0.00978929 -0.266358 0	-0.00650888 -0.265773 0	-0.00324914 -0.26543 0	
-7.22136e-07 -0.265318 0	0.00324772 -0.26543 0	0.00650752 -0.265772 0	0.00978804 -0.266357 0	0.0130947 -0.267205 0	
0.016427 -0.268342 0	0.0197771 -0.269803 0	0.0231245 -0.271623 0	0.0264224 -0.27385 0	0.0299743 -0.277023 0	
0.0342708 -0.277455 0	
-0.0278698 -0.283165 0	-0.0243337 -0.282461 0	-0.021681 -0.279669 0	-0.0191423 -0.277598 0	-0.0164997 -0.275864 0	
-0.0137988 -0.274443 0	-0.0110631 -0.273314 0	-0.0083077 -0.272458 0	-0.00554212 -0.271858 0	-0.00277208 -0.271504 0	
-4.84328e-07 -0.271386 0	0.00277112 -0.271503 0	0.00554122 -0.271858 0	0.00830688 -0.272457 0	0.0110624 -0.273313 0	
0.0137982 -0.274442 0	0.0164993 -0.275863 0	0.0191422 -0.277597 0	0.0216811 -0.279668 0	0.0243341 -0.28246 0	
0.0278704 -0.283164 0	
-0.0222558 -0.287209 0	-0.0193884 -0.286438 0	-0.017438 -0.28406 0	-0.0155135 -0.282222 0	-0.0134609 -0.28066 0	
-0.0113222 -0.27936 0	-0.00912105 -0.278315 0	-0.00687519 -0.277513 0	-0.00459899 -0.276947 0	-0.0023041 -0.27661 0	
-3.18601e-07 -0.276498 0	0.00230347 -0.27661 0	0.0045984 -0.276947 0	0.00687467 -0.277513 0	0.00912062 -0.278314 0	
0.0113219 -0.27936 0	0.0134607 -0.280659 0	0.0155134 -0.282222 0	0.0174381 -0.284059 0	0.0193887 -0.286437 0	
0.0222562 -0.287209 0	
-0.0174834 -0.290016 0	-0.0151881 -0.289296 0	-0.0137777 -0.287323 0	-0.0123411 -0.285748 0	-0.0107716 -0.284392 0	
-0.00910595 -0.283254 0	-0.00736618 -0.282329 0	-0.00557052 -0.281614 0	-0.00373498 -0.281107 0	-0.00187384 -0.280804 0	
-2.06169e-07 -0.280703 0	0.00187344 -0.280804 0	0.0037346 -0.281107 0	0.00557019 -0.281614 0	0.00736591 -0.282329 0	
0.00910576 -0.283253 0	0.0107715 -0.284392 0	0.0123411 -0.285747 0	0.0137778 -0.287322 0	0.0151883 -0.289296 0	
0.0174837 -0.290015 0	
-0.0135255 -0.291916 0	-0.0117087 -0.291312 0	-0.0107074 -0.289708 0	-0.00965222 -0.288394 0	-0.00847057 -0.287252 0	
-0.00719365 -0.286285 0	-0.00584112 -0.285494 0	-0.00443014 -0.28488 0	-0.00297657 -0.284441 0	-0.00149521 -0.284178 0	
-1.31532e-07 -0.284091 0	0.00149495 -0.284178 0	0.00297633 -0.284441 0	0.00442993 -0.284879 0	0.00584095 -0.285494 0	
0.00719354 -0.286285 0	0.00847051 -0.287252 0	0.00965224 -0.288393 0	0.0107075 -0.289708 0	0.0117089 -0.291311 0	
0.0135257 -0.291915 0	
-0.0103095 -0.293161 0	-0.00888621 -0.292702 0	-0.00818991 -0.291421 0	-0.00742848 -0.290348 0	-0.00655294 -0.289409 0	
-0.00558927 -0.288608 0	-0.00455438 -0.287949 0	-0.00346362 -0.287435 0	-0.00233167 -0.287067 0	-0.00117261 -0.286845 0	
-8.28731e-08 -0.286772 0	0.00117245 -0.286845 0	0.00233153 -0.287067 0	0.00346349 -0.287435 0	0.00455427 -0.287949 0	
0.00558921 -0.288608 0	0.00655291 -0.289409 0	0.00742849 -0.290348 0	0.00818997 -0.291421 0	0.00888631 -0.292702 0	
0.0103096 -0.293161 0	
-0.00774103 -0.293938 0	-0.00663826 -0.29364 0	-0.00616592 -0.292627 0	-0.0056272 -0.291768 0	-0.00498939 -0.29101 0	
-0.00427369 -0.290361 0	-0.00349426 -0.289824 0	-0.00266436 -0.289403 0	-0.00179694 -0.2891 0	-0.000904684 -0.288918 0	
-5.16342e-08 -0.288858 0	0.000904583 -0.288918 0	0.00179685 -0.2891 0	0.00266428 -0.289403 0	0.0034942 -0.289824 0	
0.00427365 -0.290361 0	0.00498937 -0.29101 0	0.00562722 -0.291768 0	0.00616596 -0.292627 0	0.00663833 -0.29364 0	
0.00774112 -0.293938 0	
-0.00572167 -0.294376 0	-0.0048761 -0.294249 0	-0.00456668 -0.293456 0	-0.00419424 -0.292779 0	-0.00373824 -0.292179 0	
-0.00321572 -0.291661 0	-0.00263823 -0.291232 0	-0.00201689 -0.290894 0	-0.00136277 -0.290651 0	-0.000686846 -0.290504 0	
-3.18451e-08 -0.290455 0	0.000686785 -0.290504 0	0.00136272 -0.29065 0	0.00201685 -0.290894 0	0.00263819 -0.291232 0	
0.0032157 -0.291661 0	0.00373823 -0.292179 0	0.00419425 -0.292779 0	0.00456671 -0.293456 0	0.00487615 -0.294249 0	
0.00572173 -0.294376 0	
-0.00415842 -0.294597 0	-0.00351463 -0.294621 0	-0.00332221 -0.294009 0	-0.00307239 -0.293484 0	-0.00275361 -0.293015 0	
-0.00237941 -0.29261 0	-0.00195908 -0.292272 0	-0.00150176 -0.292005 0	-0.00101663 -0.291813 0	-0.000512966 -0.291697 0	
-1.94564e-08 -0.291658 0	0.000512929 -0.291697 0	0.0010166 -0.291813 0	0.00150173 -0.292005 0	0.00195906 -0.292272 0	
0.0023794 -0.29261 0	0.00275361 -0.293015 0	0.0030724 -0.293484 0	0.00332223 -0.294009 0	0.00351465 -0.294621 0	
0.00415846 -0.294597 0	
-0.00296563 -0.294682 0	-0.00247886 -0.294827 0	-0.00236836 -0.294362 0	-0.0022075 -0.293961 0	-0.00199075 -0.293601 0	
-0.00172877 -0.293289 0	-0.00142893 -0.293027 0	-0.00109857 -0.29282 0	-0.000745218 -0.29267 0	-0.00037647 -0.292579 0	
-1.17824e-08 -0.292549 0	0.000376448 -0.292579 0	0.000745197 -0.29267 0	0.00109856 -0.29282 0	0.00142891 -0.293027 0	
0.00172876 -0.293288 0	0.00199075 -0.293601 0	0.0022075 -0.293961 0	0.00236837 -0.294362 0	0.00247887 -0.294827 0	
0.00296565 -0.294682 0	
-0.00206811 -0.294682 0	-0.00170314 -0.294923 0	-0.00164842 -0.294574 0	-0.00155082 -0.294272 0	-0.00140868 -0.294 0	
-0.00123031 -0.293763 0	-0.00102144 -0.293563 0	-0.0007879 -0.293405 0	-0.000535702 -0.29329 0	-0.000270993 -0.29322 0	
-7.07484e-09 -0.293197 0	0.000270979 -0.29322 0	0.000535689 -0.29329 0	0.000787889 -0.293405 0	0.00102143 -0.293563 0	
0.0012303 -0.293763 0	0.00140868 -0.294 0	0.00155082 -0.294272 0	0.00164842 -0.294574 0	0.00170315 -0.294923 0	
0.00206812 -0.294682 0	
-0.00140254 -0.294632 0	-0.00113134 -0.294946 0	-0.00111346 -0.294689 0	-0.00105988 -0.294465 0	-0.000971341 -0.294263 0	
-0.000854242 -0.294085 0	-0.000712998 -0.293935 0	-0.00055215 -0.293816 0	-0.000376434 -0.293729 0	-0.000190728 -0.293676 0	
-4.21344e-09 -0.293659 0	0.00019072 -0.293676 0	0.000376427 -0.293729 0	0.000552144 -0.293816 0	0.000712994 -0.293935 0	
0.00085424 -0.294085 0	0.000971341 -0.294263 0	0.00105988 -0.294465 0	0.00111346 -0.294689 0	0.00113135 -0.294946 0	
0.00140255 -0.294632 0	
-0.000916678 -0.294554 0	-0.000717083 -0.294924 0	-0.000722515 -0.294737 0	-0.000698759 -0.294575 0	-0.00064795 -0.294426 0	
-0.00057497 -0.294295 0	-0.000483168 -0.294185 0	-0.000376031 -0.294096 0	-0.000257236 -0.294032 0	-0.000130592 -0.293993 0	
-2.48941e-09 -0.29398 0	0.000130588 -0.293993 0	0.000257232 -0.294032 0	0.000376028 -0.294096 0	0.000483165 -0.294185 0	
0.000574969 -0.294295 0	0.00064795 -0.294426 0	0.00069876 -0.294575 0	0.000722518 -0.294737 0	0.000717087 -0.294924 0	
0.000916683 -0.294554 0	
-0.000568164 -0.294465 0	-0.000422799 -0.294876 0	-0.000442066 -0.294743 0	-0.000437823 -0.294627 0	-0.000412925 -0.29452 0	
-0.000371067 -0.294426 0	-0.00031475 -0.294345 0	-0.000246618 -0.294281 0	-0.00016948 -0.294234 0	-8.62692e-05 -0.294205 0	
-1.45923e-09 -0.294196 0	8.62664e-05 -0.294205 0	0.000169478 -0.294234 0	0.000246616 -0.294281 0	0.000314749 -0.294345 0	
0.000371066 -0.294426 0	0.000412926 -0.29452 0	0.000437824 -0.294627 0	0.000442068 -0.294743 0	0.000422801 -0.294876 0	
0.000568167 -0.294465 0	
-0.000323222 -0.294374 0	-0.000218583 -0.294816 0	-0.00024518 -0.294723 0	-0.000253085 -0.294642 0	-0.000245431 -0.294567 0	
-0.000224989 -0.2945 0	-0.000193601 -0.294443 0	-0.000153241 -0.294397 0	-0.000106026 -0.294363 0	-5.418e-05 -0.294342 0	
-8.49041e-10 -0.294336 0	5.41784e-05 -0.294342 0	0.000106025 -0.294363 0	0.00015324 -0.294397 0	0.0001936 -0.294443 0	
0.000224988 -0.2945 0	0.000245432 -0.294567 0	0.000253086 -0.294642 0	0.000245182 -0.294723 0	0.000218584 -0.294816 0	
0.000323224 -0.294374 0	
-0.000155304 -0.294287 0	-8.09831e-05 -0.294751 0	-0.00011057 -0.294688 0	-0.000125464 -0.294633 0	-0.000128799 -0.294581 0	
-0.000122634 -0.294535 0	-0.000108306 -0.294495 0	-8.72647e-05 -0.294463 0	-6.1081e-05 -0.29444 0	-3.14182e-05 -0.294425 0	
-4.90854e-10 -0.29442 0	3.14173e-05 -0.294425 0	6.10802e-05 -0.29444 0	8.7264e-05 -0.294463 0	0.000108306 -0.294495 0	
0.000122634 -0.294535 0	0.000128799 -0.294581 0	0.000125464 -0.294633 0	0.00011057 -0.294688 0	8.0984e-05 -0.294751 0	
0.000155305 -0.294287 0	
-4.38261e-05 -0.294208 0	8.13069e-06 -0.294687 0	-2.16532e-05 -0.294646 0	-4.00085e-05 -0.29461 0	-4.99033e-05 -0.294576 0	
-5.28516e-05 -0.294545 0	-4.98066e-05 -0.294518 0	-4.18156e-05 -0.294496 0	-3.00267e-05 -0.29448 0	-1.56634e-05 -0.29447 0	
-2.81208e-10 -0.294467 0	1.56629e-05 -0.29447 0	3.00262e-05 -0.29448 0	4.18153e-05 -0.294496 0	4.98063e-05 -0.294518 0	
5.28515e-05 -0.294545 0	4.99034e-05 -0.294576 0	4.00087e-05 -0.29461 0	2.16536e-05 -0.294646 0	-8.13017e-06 -0.294687 0	
4.38267e-05 -0.294208 0	
2.69621e-05 -0.294138 0	6.25856e-05 -0.294627 0	3.43045e-05 -0.294601 0	1.4827e-05 -0.294579 0	1.44236e-06 -0.294558 0	
-6.95227e-06 -0.294538 0	-1.1022e-05 -0.29452 0	-1.15092e-05 -0.294506 0	-9.23758e-06 -0.294495 0	-5.09244e-06 -0.294489 0	
-1.59718e-10 -0.294487 0	5.09213e-06 -0.294489 0	9.23731e-06 -0.294495 0	1.15089e-05 -0.294506 0	1.10218e-05 -0.29452 0	
6.95223e-06 -0.294538 0	-1.44231e-06 -0.294558 0	-1.48269e-05 -0.294579 0	-3.43042e-05 -0.294601 0	-6.25853e-05 -0.294627 0	
-2.69618e-05 -0.294138 0	
6.89568e-05 -0.294077 0	9.27828e-05 -0.294573 0	6.69507e-05 -0.294558 0	4.78381e-05 -0.294546 0	3.30318e-05 -0.294533 0	
2.17374e-05 -0.294521 0	1.35028e-05 -0.29451 0	7.81366e-06 -0.294502 0	4.09094e-06 -0.294495 0	1.70667e-06 -0.294491 0	
-8.97814e-11 -0.294489 0	-1.70684e-06 -0.294491 0	-4.09109e-06 -0.294495 0	-7.81377e-06 -0.294502 0	-1.35029e-05 -0.29451 0	
-2.17374e-05 -0.294521 0	-3.30318e-05 -0.294533 0	-4.7838e-05 -0.294546 0	-6.69506e-05 -0.294558 0	-9.27827e-05 -0.294573 0	
-6.89566e-05 -0.294077 0	
9.10252e-05 -0.294026 0	0.000106437 -0.294525 0	8.34927e-05 -0.294518 0	6.56317e-05 -0.294512 0	5.07469e-05 -0.294506 0	
3.82729e-05 -0.294499 0	2.79127e-05 -0.294493 0	1.93201e-05 -0.294488 0	1.20983e-05 -0.294485 0	5.81198e-06 -0.294482 0	
-4.89972e-11 -0.294481 0	-5.81208e-06 -0.294482 0	-1.20984e-05 -0.294485 0	-1.93201e-05 -0.294488 0	-2.79127e-05 -0.294493 0	
-3.82729e-05 -0.294499 0	-5.07468e-05 -0.294506 0	-6.56317e-05 -0.294512 0	-8.34926e-05 -0.294518 0	-0.000106437 -0.294525 0	
-9.10251e-05 -0.294026 0	
9.9685e-05 -0.293982 0	0.000109183 -0.294484 0	8.9236e-05 -0.294482 0	7.31002e-05 -0.294481 0	5.89635e-05 -0.294478 0	
4.64298e-05 -0.294476 0	3.53128e-05 -0.294473 0	2.53885e-05 -0.294471 0	1.63936e-05 -0.294469 0	8.03518e-06 -0.294468 0	
-2.63814e-11 -0.294467 0	-8.03523e-06 -0.294468 0	-1.63937e-05 -0.294469 0	-2.53885e-05 -0.294471 0	-3.53128e-05 -0.294473 0	
-4.64298e-05 -0.294476 0	-5.89635e-05 -0.294478 0	-7.31001e-05 -0.294481 0	-8.9236e-05 -0.294482 0	-0.000109183 -0.294484 0	
-9.96849e-05 -0.293982 0	
9.96543e-05 -0.293947 0	0.00010507 -0.29445 0	8.80248e-05 -0.294451 0	7.38105e-05 -0.294452 0	6.08888e-05 -0.294452 0	
4.89866e-05 -0.294452 0	3.79958e-05 -0.294451 0	2.77792e-05 -0.294451 0	1.817e-05 -0.29445 0	8.97864e-06 -0.29445 0	
-1.28259e-11 -0.29445 0	-8.97866e-06 -0.29445 0	-1.81701e-05 -0.29445 0	-2.77792e-05 -0.294451 0	-3.79958e-05 -0.294451 0	
-4.89866e-05 -0.294452 0	-6.08888e-05 -0.294452 0	-7.38105e-05 -0.294452 0	-8.80248e-05 -0.294451 0	-0.00010507 -0.29445 0	
-9.96542e-05 -0.293947 0	
9.42907e-05 -0.293918 0	9.69527e-05 -0.29442 0	8.25946e-05 -0.294424 0	7.03195e-05 -0.294426 0	5.88345e-05 -0.294428 0	
4.79554e-05 -0.29443 0	3.76276e-05 -0.29443 0	2.77748e-05 -0.294431 0	1.82984e-05 -0.294431 0	9.08259e-06 -0.294431 0	
-5.37766e-12 -0.294431 0	-9.0826e-06 -0.294431 0	-1.82984e-05 -0.294431 0	-2.77748e-05 -0.294431 0	-3.76276e-05 -0.29443 0	
-4.79554e-05 -0.29443 0	-5.88345e-05 -0.294428 0	-7.03195e-05 -0.294426 0	-8.25946e-05 -0.294424 0	-9.69526e-05 -0.29442 0	
-9.42907e-05 -0.293918 0	
8.59361e-05 -0.293894 0	8.67945e-05 -0.294396 0	7.48517e-05 -0.294401 0	6.44243e-05 -0.294404 0	5.44363e-05 -0.294407 0	
4.47672e-05 -0.294409 0	3.53981e-05 -0.294411 0	2.62941e-05 -0.294412 0	1.74039e-05 -0.294413 0	8.66345e-06 -0.294413 0	
-2.01174e-12 -0.294413 0	-8.66346e-06 -0.294413 0	-1.74039e-05 -0.294413 0	-2.62941e-05 -0.294412 0	-3.5398e-05 -0.294411 0	
-4.47671e-05 -0.294409 0	-5.44362e-05 -0.294407 0	-6.44243e-05 -0.294404 0	-7.48517e-05 -0.294401 0	-8.67945e-05 -0.294396 0	
-8.5936e-05 -0.293894 0	
7.61853e-05 -0.293875 0	7.59112e-05 -0.294377 0	6.60911e-05 -0.294381 0	5.73586e-05 -0.294385 0	4.88263e-05 -0.294389 0	
4.04188e-05 -0.294391 0	3.214e-05 -0.294393 0	2.39825e-05 -0.294395 0	1.59269e-05 -0.294396 0	7.94437e-06 -0.294396 0	
-1.40124e-12 -0.294397 0	-7.94437e-06 -0.294396 0	-1.59269e-05 -0.294396 0	-2.39825e-05 -0.294395 0	-3.214e-05 -0.294393 0	
-4.04188e-05 -0.294391 0	-4.88263e-05 -0.294389 0	-5.73586e-05 -0.294385 0	-6.60911e-05 -0.294381 0	-7.59111e-05 -0.294377 0	
-7.61853e-05 -0.293875 0	
6.60916e-05 -0.29386 0	6.515e-05 -0.294361 0	5.71648e-05 -0.294366 0	4.99458e-05 -0.294369 0	4.27681e-05 -0.294373 0	
3.55879e-05 -0.294376 0	2.8423e-05 -0.294378 0	2.12835e-05 -0.294379 0	1.41707e-05 -0.29438 0	7.07938e-06 -0.294381 0	
-9.97454e-14 -0.294381 0	-7.07938e-06 -0.294381 0	-1.41707e-05 -0.29438 0	-2.12835e-05 -0.294379 0	-2.8423e-05 -0.294378 0	
-3.55879e-05 -0.294376 0	-4.27681e-05 -0.294373 0	-4.99458e-05 -0.294369 0	-5.71648e-05 -0.294366 0	-6.51501e-05 -0.294361 0	
-6.60916e-05 -0.29386 0	
5.63243e-05 -0.293848 0	5.50297e-05 -0.294348 0	4.86101e-05 -0.294353 0	4.27156e-05 -0.294356 0	3.676e-05 -0.29436 0	
3.07216e-05 -0.294362 0	2.4626e-05 -0.294364 0	1.84936e-05 -0.294366 0	1.2339e-05 -0.294367 0	6.17218e-06 -0.294368 0	
-1.16289e-12 -0.294368 0	-6.17218e-06 -0.294368 0	-1.2339e-05 -0.294367 0	-1.84936e-05 -0.294366 0	-2.4626e-05 -0.294364 0	
-3.07216e-05 -0.294362 0	-3.67601e-05 -0.29436 0	-4.27156e-05 -0.294356 0	-4.86102e-05 -0.294353 0	-5.50297e-05 -0.294348 0	
-5.63243e-05 -0.293848 0	
4.72869e-05 -0.293839 0	4.58436e-05 -0.294338 0	4.0747e-05 -0.294342 0	3.59933e-05 -0.294346 0	3.11146e-05 -0.294349 0	
2.61046e-05 -0.294351 0	2.09928e-05 -0.294353 0	1.58055e-05 -0.294354 0	1.05649e-05 -0.294355 0	5.29064e-06 -0.294356 0	
-3.39683e-13 -0.294356 0	-5.29065e-06 -0.294356 0	-1.05649e-05 -0.294355 0	-1.58055e-05 -0.294354 0	-2.09928e-05 -0.294353 0	
-2.61046e-05 -0.294351 0	-3.11146e-05 -0.294349 0	-3.59933e-05 -0.294346 0	-4.0747e-05 -0.294342 0	-4.58436e-05 -0.294338 0	
-4.72869e-05 -0.293839 0	
3.92067e-05 -0.293832 0	3.77386e-05 -0.29433 0	3.37509e-05 -0.294334 0	2.99667e-05 -0.294337 0	2.60185e-05 -0.294339 0	
2.1911e-05 -0.294342 0	1.76751e-05 -0.294343 0	1.334e-05 -0.294345 0	8.93256e-06 -0.294346 0	4.47792e-06 -0.294346 0	
-9.47144e-13 -0.294346 0	-4.47792e-06 -0.294346 0	-8.93256e-06 -0.294346 0	-1.334e-05 -0.294345 0	-1.76751e-05 -0.294343 0	
-2.1911e-05 -0.294342 0	-2.60185e-05 -0.294339 0	-2.99667e-05 -0.294337 0	-3.37509e-05 -0.294334 0	-3.77386e-05 -0.29433 0	
-3.92067e-05 -0.293832 0	
3.2202e-05 -0.293827 0	3.07721e-05 -0.294324 0	2.77073e-05 -0.294327 0	2.47367e-05 -0.29433 0	2.15777e-05 -0.294332 0	
1.82432e-05 -0.294334 0	1.47643e-05 -0.294336 0	1.11715e-05 -0.294337 0	7.49417e-06 -0.294338 0	3.76098e-06 -0.294338 0	
-8.34216e-13 -0.294338 0	-3.76098e-06 -0.294338 0	-7.49417e-06 -0.294338 0	-1.11715e-05 -0.294337 0	-1.47643e-05 -0.294336 0	
-1.82432e-05 -0.294334 0	-2.15777e-05 -0.294332 0	-2.47367e-05 -0.29433 0	-2.77073e-05 -0.294327 0	-3.07721e-05 -0.294324 0	
-3.2202e-05 -0.293827 0	
2.63275e-05 -0.293823 0	2.49511e-05 -0.29432 0	2.26512e-05 -0.294322 0	2.03547e-05 -0.294324 0	1.78519e-05 -0.294326 0	
1.51624e-05 -0.294328 0	1.2317e-05 -0.294329 0	9.3468e-06 -0.29433 0	6.28312e-06 -0.294331 0	3.15713e-06 -0.294331 0	
-6.62641e-13 -0.294331 0	-3.15714e-06 -0.294331 0	-6.28312e-06 -0.294331 0	-9.3468e-06 -0.29433 0	-1.2317e-05 -0.294329 0	
-1.51624e-05 -0.294328 0	-1.78519e-05 -0.294326 0	-2.03547e-05 -0.294324 0	-2.26512e-05 -0.294322 0	-2.49511e-05 -0.29432 0	
-2.63275e-05 -0.293823 0	
2.15981e-05 -0.29382 0	2.02574e-05 -0.294316 0	1.85976e-05 -0.294319 0	1.68521e-05 -0.29432 0	1.48817e-05 -0.294322 0	
1.27119e-05 -0.294323 0	1.0374e-05 -0.294324 0	7.90038e-06 -0.294324 0	5.32419e-06 -0.294325 0	2.67932e-06 -0.294325 0	
-6.27888e-13 -0.294325 0	-2.67932e-06 -0.294325 0	-5.32419e-06 -0.294325 0	-7.90038e-06 -0.294324 0	-1.0374e-05 -0.294324 0	
-1.27119e-05 -0.294323 0	-1.48817e-05 -0.294322 0	-1.68521e-05 -0.29432 0	-1.85976e-05 -0.294319 0	-2.02574e-05 -0.294316 0	
-2.15981e-05 -0.29382 0	
1.80473e-05 -0.293818 0	1.66927e-05 -0.294314 0	1.55773e-05 -0.294316 0	1.42711e-05 -0.294317 0	1.2714e-05 -0.294318 0	
1.09386e-05 -0.294319 0	8.97804e-06 -0.294319 0	6.86711e-06 -0.29432 0	4.64206e-06 -0.29432 0	2.3403e-06 -0.29432 0	
-3.73844e-13 -0.29432 0	-2.3403e-06 -0.29432 0	-4.64206e-06 -0.29432 0	-6.86711e-06 -0.29432 0	-8.97805e-06 -0.294319 0	
-1.09386e-05 -0.294319 0	-1.2714e-05 -0.294318 0	-1.42711e-05 -0.294317 0	-1.55773e-05 -0.294316 0	-1.66927e-05 -0.294314 0	
-1.80473e-05 -0.293818 0	
1.58074e-05 -0.293817 0	1.43388e-05 -0.294313 0	1.36672e-05 -0.294314 0	1.26886e-05 -0.294314 0	1.1422e-05 -0.294315 0	
9.90903e-06 -0.294315 0	8.18626e-06 -0.294315 0	6.29235e-06 -0.294316 0	4.26814e-06 -0.294316 0	2.15615e-06 -0.294316 0	
-6.96372e-14 -0.294316 0	-2.15615e-06 -0.294316 0	-4.26814e-06 -0.294316 0	-6.29235e-06 -0.294316 0	-8.18626e-06 -0.294315 0	
-9.90903e-06 -0.294315 0	-1.1422e-05 -0.294315 0	-1.26886e-05 -0.294314 0	-1.36672e-05 -0.294314 0	-1.43388e-05 -0.294313 0	
-1.58075e-05 -0.293817 0	
1.50289e-05 -0.293816 0	1.33401e-05 -0.294313 0	1.29901e-05 -0.294312 0	1.2223e-05 -0.294312 0	1.11154e-05 -0.294312 0	
9.72071e-06 -0.294312 0	8.08074e-06 -0.294312 0	6.24007e-06 -0.294312 0	4.24628e-06 -0.294312 0	2.14916e-06 -0.294311 0	
2.66415e-13 -0.294311 0	-2.14915e-06 -0.294311 0	-4.24627e-06 -0.294312 0	-6.24007e-06 -0.294312 0	-8.08074e-06 -0.294312 0	
-9.72071e-06 -0.294312 0	-1.11154e-05 -0.294312 0	-1.2223e-05 -0.294312 0	-1.29901e-05 -0.294312 0	-1.33401e-05 -0.294313 0	
-1.50289e-05 -0.293816 0	
1.59043e-05 -0.293815 0	1.38753e-05 -0.294313 0	1.37282e-05 -0.294311 0	1.3049e-05 -0.29431 0	1.19547e-05 -0.29431 0	
1.05147e-05 -0.294309 0	8.77904e-06 -0.294308 0	6.80116e-06 -0.294308 0	4.63833e-06 -0.294307 0	2.35062e-06 -0.294307 0	
1.63313e-12 -0.294307 0	-2.35061e-06 -0.294307 0	-4.63832e-06 -0.294307 0	-6.80116e-06 -0.294308 0	-8.77904e-06 -0.294308 0	
-1.05147e-05 -0.294309 0	-1.19547e-05 -0.29431 0	-1.3049e-05 -0.29431 0	-1.37282e-05 -0.294311 0	-1.38753e-05 -0.294313 0	
-1.59042e-05 -0.293815 0	
1.87828e-05 -0.293815 0	1.62246e-05 -0.294313 0	1.61611e-05 -0.29431 0	1.54256e-05 -0.294308 0	1.41725e-05 -0.294307 0	
1.24923e-05 -0.294305 0	1.0447e-05 -0.294304 0	8.10277e-06 -0.294303 0	5.53039e-06 -0.294302 0	2.80399e-06 -0.294302 0	
1.28648e-12 -0.294302 0	-2.80398e-06 -0.294302 0	-5.53039e-06 -0.294302 0	-8.10277e-06 -0.294303 0	-1.0447e-05 -0.294304 0	
-1.24923e-05 -0.294305 0	-1.41725e-05 -0.294307 0	-1.54256e-05 -0.294308 0	-1.61611e-05 -0.29431 0	-1.62246e-05 -0.294313 0	
-1.87828e-05 -0.293815 0	
2.41591e-05 -0.293815 0	2.08196e-05 -0.294314 0	2.06898e-05 -0.294309 0	1.97186e-05 -0.294306 0	1.8093e-05 -0.294304 0	
1.5931e-05 -0.294301 0	1.33116e-05 -0.294299 0	1.0318e-05 -0.294298 0	7.03924e-06 -0.294296 0	3.56805e-06 -0.294296 0	