# vtk DataFile Version 2.0
Titre
ASCII
DATASET STRUCTURED_POINTS
DIMENSIONS 100 100 1
ORIGIN 0.0 0.0 0.0
SPACING 0.1 0.1 0.0
POINT_DATA 10000 
SCALARS rho float
LOOKUP_TABLE default
-0.00122471 -0.00099416 -0.000419963 0.000337911 0.000339216 -0.000753598 -0.00102852 -0.000439348 1.14864e-05 -5.74806e-05 
8.76933e-05 0.000347345 0.000270848 -5.05162e-05 -0.00018674 -5.81984e-05 -4.77178e-05 -0.000242314 -0.000278615 0.00047712 
0.00200009 0.00291151 0.00180767 -0.000875921 -0.00310688 -0.00332483 -0.00167186 0.000398847 0.00151359 0.00130803 
0.000257354 -0.000761625 -0.00108716 -0.000616723 0.000245786 0.000944784 0.0011361 0.000820688 0.000202462 -0.000406884 
-0.000803875 -0.00091603 -0.000789531 -0.000532858 -0.000259054 -4.25159e-05 8.33192e-05 0.000130263 0.000128987 0.000131619 
0.000171314 0.000287968 0.00047842 0.000733141 0.000996048 0.00119771 0.00124752 0.00106473 0.000605845 -0.000106163 
-0.000964269 -0.00177081 -0.00228756 -0.00229336 -0.00167589 -0.000500629 0.000917186 0.00213639 0.00263668 0.00205943 
0.000458132 -0.00156461 -0.00321334 -0.00372631 -0.00279134 -0.000721971 0.00144965 0.00268713 0.00236923 0.000746625 
-0.00130218 -0.00252325 -0.00222611 -0.000763461 0.000627399 0.000915876 2.49782e-05 -0.00110277 -0.00140764 -0.000638512 
0.000553126 0.00121626 0.00107598 0.000529635 0.00015364 -0.000109421 -0.000224521 -0.000445109 -0.000203169 1.26269e-05 
0.00080553 0.000831984 0.00127247 0.000345056 -0.000621269 -0.000350726 8.94595e-05 0.000289181 -0.000117992 -0.000166138 
0.00026777 0.000130131 -0.000155509 -6.46613e-05 0.000162618 -0.000124597 -0.000547813 -0.000229151 0.00113863 0.0028366 
0.00269003 -0.000618627 -0.00490256 -0.00618094 -0.00317952 0.00157937 0.00453494 0.00407546 0.00141289 -0.0013028 
-0.00247715 -0.00171955 0.000137322 0.00176503 0.00224704 0.00151137 0.000189191 -0.000997207 -0.00156784 -0.00141324 
-0.000807071 -5.81596e-05 0.000531882 0.000824907 0.000800694 0.000536394 0.000137347 -0.000298378 -0.000680594 -0.000968564 
-0.00111072 -0.00109386 -0.000888757 -0.000493249 8.66188e-05 0.000798275 0.00154712 0.00217735 0.00249601 0.00231471 
0.00150015 7.76502e-05 -0.00175311 -0.00356157 -0.00481535 -0.00499081 -0.00382727 -0.00148974 0.00135904 0.00370135 
0.00451809 0.00328345 0.000320979 -0.00319278 -0.00565015 -0.00579732 -0.00343025 0.000299955 0.00348986 0.00444628 
0.00282908 -0.000211032 -0.00258178 -0.00277762 -0.000863336 0.00151369 0.00252548 0.00149041 -0.000459215 -0.00168326 
-0.00134047 -0.000137409 0.000632968 0.000591505 0.000283852 0.000436133 0.000417964 1.13512e-05 2.55364e-05 -1.55698e-05 
-0.000721802 -0.000981902 -0.000695848 -0.00187192 -0.00055229 -7.60689e-05 -0.000244694 -0.000459176 -0.000392245 0.000427583 
0.000379762 -0.000150943 7.82428e-07 0.000296901 -0.000109418 -0.000723257 -0.000287117 0.00118481 0.00280147 0.00258706 
-0.000760226 -0.00453671 -0.00424852 0.000365345 0.00468005 0.00474689 0.000804479 -0.00353186 -0.00516469 -0.00372574 
-0.0005383 0.0023228 0.00327721 0.0021444 5.96686e-07 -0.00176239 -0.00229425 -0.00168206 -0.000421378 0.000734124 
0.00136987 0.00140581 0.000990871 0.000394836 -0.000165366 -0.000571466 -0.000802702 -0.000914359 -0.00096711 -0.00104832 
-0.00115574 -0.00131124 -0.00142212 -0.00142794 -0.0012102 -0.000704411 0.000110487 0.00116345 0.00226763 0.00315656 
0.00350745 0.0030644 0.00173274 -0.00031235 -0.00258351 -0.0043821 -0.00497663 -0.00391863 -0.00130581 0.0021126 
0.00508077 0.00631238 0.0050997 0.00176722 -0.00227183 -0.00512519 -0.0053226 -0.00275573 0.00121087 0.0042837 
0.00475276 0.00238125 -0.00117407 -0.003686 -0.00362849 -0.00151372 0.000915501 0.00176706 0.000860876 -0.000603568 
-0.00108641 -0.000317853 0.000616526 0.000663656 -5.00377e-05 -0.000265401 0.000363284 9.92674e-05 -7.95497e-05 -0.00062466 
0.000633691 0.00129261 0.000667529 0.000338343 0.00120464 -2.10675e-05 2.28971e-05 0.000353495 0.00085876 0.000659434 
-0.000316893 -0.000156608 0.000362701 -9.75692e-05 -0.000888583 -0.00046771 0.00106508 0.00263437 0.00281583 -9.49469e-05 
-0.00405275 -0.00426679 -0.000245984 0.00286639 0.00153807 -0.00225629 -0.00426223 -0.00244008 0.00120193 0.00401583 
0.00460508 0.0027915 -0.000158383 -0.00238117 -0.00281511 -0.00159476 0.000188801 0.00150824 0.00189058 0.00136979 
0.000539851 -0.000191072 -0.000521051 -0.000436811 -0.000101166 0.000295845 0.000555285 0.000596563 0.000347691 -0.000141077 
-0.000835935 -0.00162778 -0.00239876 -0.00299599 -0.00324432 -0.00298459 -0.00209548 -0.000578549 0.0014319 0.00357571 
0.00538324 0.00625011 0.00574687 0.00366802 0.00035319 -0.00339747 -0.00637782 -0.00742574 -0.00585729 -0.0019703 
0.00295034 0.00685293 0.00792607 0.00535271 0.000126128 -0.00540537 -0.00838424 -0.00728413 -0.00257542 0.00299672 
0.00637674 0.00569091 0.00187731 -0.00231928 -0.00400871 -0.00248156 0.00058453 0.00248077 0.00183045 -0.000346498 
-0.00189132 -0.00142717 0.000214815 0.00131009 0.000785755 -0.000412104 -1.13147e-05 0.0002963 0.000636543 0.000405507 
7.34806e-05 -0.00144437 -0.00197166 -0.00167344 -0.000765818 -0.00097193 0.000402663 0.000274981 -0.00016101 -0.000748396 
-0.000339895 0.000562507 -6.16156e-06 -0.00101698 -0.000634036 0.00092669 0.00238561 0.00296639 0.000839727 -0.00335605 
-0.00455834 -0.000934662 0.00260307 0.00195231 -0.000724284 -0.00163087 0.000139545 0.00197274 0.00161362 -0.000177249 
-0.00222834 -0.00346289 -0.00297231 -0.00104054 0.00107222 0.00225682 0.00200108 0.000920173 -0.000297843 -0.00091517 
-0.000766868 -0.000142658 0.000656566 0.00128097 0.00160935 0.00167678 0.00153347 0.00131928 0.000999292 0.000630213 
6.36566e-05 -0.000680982 -0.00168912 -0.00284546 -0.0040015 -0.00487592 -0.00511636 -0.00443885 -0.00262935 0.000178008 
0.00359212 0.00679288 0.00882831 0.00876531 0.00615475 0.00129324 -0.00456918 -0.00955479 -0.0116172 -0.00960381 
-0.00375676 0.00382209 0.010026 0.0118858 0.00835113 0.000907888 -0.00661226 -0.0102747 -0.00800276 -0.00133177 
0.00566285 0.00857893 0.00585471 -0.000321001 -0.005468 -0.00620734 -0.00265039 0.00184865 0.00369594 0.00201628 
-0.000934519 -0.00230545 -0.00127378 0.000619834 0.00152679 0.000159021 -0.00029308 -0.000371351 -0.000118389 -0.000472569 
-0.000536408 -0.000444851 0.00104161 0.0019142 0.00246081 0.00122935 0.00115961 -0.000316088 -9.63942e-06 0.000636046 
0.00102515 0.000107066 -0.00115563 -0.000699155 0.000777293 0.00193612 0.00277896 0.00181147 -0.00219753 -0.00469668 
-0.00189985 0.00214552 0.00217733 -0.000457509 -0.00185963 -0.00117243 -0.000112288 -0.000466105 -0.000897607 -0.00022969 
0.000796151 0.00188956 0.00268871 0.00241904 0.00114499 -0.000535912 -0.00173966 -0.00184641 -0.00113822 2.23888e-05 
0.000851667 0.00120578 0.00114982 0.000903618 0.000828336 0.00101055 0.00150537 0.00217081 0.00282966 0.00328012 
0.00329761 0.00275109 0.00149964 -0.000410285 -0.00286329 -0.00550357 -0.00784849 -0.00926001 -0.00914437 -0.0070608 
-0.00303845 0.00239347 0.00801405 0.0122703 0.0135638 0.0109432 0.00465545 -0.00364399 -0.0111143 -0.0147456 
-0.0126523 -0.00519902 0.00467399 0.0124787 0.0142844 0.00890933 -0.00100284 -0.0100801 -0.0131562 -0.0084632 
0.00101788 0.00932875 0.0112845 0.00622238 -0.00184057 -0.00704383 -0.00630895 -0.00133149 0.00313599 0.00362589 
0.000842311 -0.00183467 -0.00202793 -0.000589411 0.00131431 0.000689027 0.000114828 5.4256e-05 0.000575603 3.53841e-05 
-0.000360277 0.000511488 0.000212218 -0.000659145 -0.00160521 -0.00258236 -0.00102525 -0.000722231 0.00092527 0.000235383 
-0.000912482 -0.00148142 -0.000731824 0.000492515 0.00111512 0.00219295 0.00272597 -0.000469996 -0.00435732 -0.00299648 
0.00140475 0.00256864 0.000245054 -0.00145603 -0.00114438 0.000184667 0.000746832 0.000615381 0.00115924 0.00107483 
-8.85788e-05 -0.00123604 -0.00217207 -0.00270967 -0.00233615 -0.00131007 0.000222036 0.00139605 0.00175568 0.00128829 
0.00028386 -0.000501336 -0.000873586 -0.000660979 6.15232e-05 0.000978689 0.00210897 0.00319239 0.00434406 0.0053483 
0.00619059 0.00655705 0.00623284 0.00493155 0.00247719 -0.00101731 -0.00527057 -0.00946393 -0.0127324 -0.0138688 
-0.0121496 -0.0072022 0.000220567 0.00853503 0.0152687 0.0179894 0.0150157 0.00662751 -0.00487836 -0.0152206 
-0.0201194 -0.0168316 -0.00627988 0.00716122 0.0169404 0.0180925 0.00972296 -0.00348953 -0.0140537 -0.0156945 
-0.00783956 0.00422654 0.0123553 0.0116073 0.00338962 -0.00562587 -0.00885389 -0.00499535 0.00162234 0.00484851 
0.0028526 -0.0011143 -0.00240069 -0.00137069 0.00116486 0.00107451 -7.91404e-05 -0.000677134 3.18767e-05 0.000338367 
-0.000195625 0.000260419 -0.000304235 0.000396574 0.00110564 0.00215853 0.00334398 0.00151474 0.000853725 -0.00124359 
-0.000586081 0.000301505 0.000341337 0.000257503 0.00165125 0.00371738 0.00169345 -0.00342935 -0.0040131 0.000284522 
0.0026853 0.00100244 -0.00112848 -0.00144198 -0.000374396 0.000628909 0.000168159 -0.000127075 -0.000159944 -0.00104352 
-0.00117077 -0.000184123 0.000841431 0.00178657 0.00221187 0.00185406 0.000959966 -0.000650061 -0.00206497 -0.00301542 
-0.00312656 -0.00260643 -0.00197702 -0.00131774 -0.000891407 -0.00049353 0.00015291 0.001131 0.0027281 0.00472425 
0.00709968 0.00935302 0.0111253 0.0117755 0.0107995 0.00782124 0.00274813 -0.00389574 -0.0111564 -0.0173855 
-0.0208531 -0.0199269 -0.0139627 -0.00358566 0.00877484 0.0196346 0.0249313 0.022193 0.0112489 -0.0043141 
-0.0186707 -0.025314 -0.020904 -0.00672096 0.0103364 0.0216964 0.0209783 0.00874309 -0.00783742 -0.018466 
-0.0168205 -0.00441894 0.00982343 0.0161596 0.0109393 -0.000902408 -0.00986843 -0.00988203 -0.00242023 0.0048766 
0.00576301 0.000751694 -0.00297637 -0.00323178 0.000187532 0.00183461 0.000985698 -0.000314293 -0.000148353 0.000294262 
-0.000159876 0.000458076 0.000358136 0.00104482 0.000107087 -0.000768773 -0.00205519 -0.00350626 -0.00171705 -0.00111727 
0.000730133 -0.000710259 -0.00130182 0.00105593 0.00419011 0.00323369 -0.00244286 -0.00484067 -0.00110441 0.0021843 
0.00157774 -0.000496404 -0.00142002 -0.000759437 0.000743948 0.000781741 -9.32818e-05 0.000288086 0.000138967 -0.000209431 
0.000422837 0.00046108 -0.000299718 -0.00103312 -0.00189037 -0.00221045 -0.00226695 -0.00202818 -0.00122546 -0.000623442 
-0.000271286 -0.000698391 -0.00169039 -0.00284861 -0.00408687 -0.00475454 -0.00497876 -0.00438564 -0.00297519 -0.000622748 
0.00270256 0.00677989 0.0112919 0.0154476 0.0184519 0.0191506 0.0168225 0.0109074 0.00191325 -0.00897309 
-0.0193738 -0.026564 -0.0278613 -0.021761 -0.00886666 0.00785731 0.0232173 0.0316141 0.0289624 0.0152312 
-0.00496992 -0.0231001 -0.0308463 -0.02375 -0.00498186 0.0159435 0.0274454 0.0230291 0.00542727 -0.0141543 
-0.0232843 -0.0165143 0.000583913 0.0154093 0.0177886 0.00733764 -0.00650803 -0.013036 -0.00840115 0.00171445 
0.00799586 0.00496468 -0.000878189 -0.0042152 -0.00185223 0.00122582 0.00137688 -0.000169217 -0.000373221 0.000409789 
0.00017687 0.000684997 0.000293532 0.000223209 -0.000905634 -0.000104085 0.000820461 0.00219177 0.00353326 0.00130612 
-2.69475e-05 -0.00207639 0.00108773 0.00445233 0.00371933 -0.00111462 -0.00429282 -0.00165177 0.00152871 0.00182425 
0.000678394 -0.000795573 -0.00114396 0.000337155 0.00119498 -0.000194911 -0.000399877 0.000137501 -0.000627404 -0.000510441 
-0.000158594 -0.000577144 -0.000274528 0.00041573 0.000885076 0.00127175 0.00079773 0.000357059 -0.000501915 -0.00183105 
-0.00317214 -0.00469815 -0.00588675 -0.00702057 -0.00817933 -0.0092076 -0.0104038 -0.010972 -0.0109579 -0.00953511 
-0.00658772 -0.00180345 0.00464223 0.0121402 0.0198157 0.0260351 0.0294269 0.028178 0.0216944 0.00985394 
-0.00543919 -0.0213045 -0.0334375 -0.0379351 -0.0320304 -0.0162148 0.00574516 0.0266045 0.0385005 0.0356967 
0.0181582 -0.00741161 -0.0295017 -0.0371523 -0.0258446 -0.00123695 0.0231167 0.0331009 0.0230088 -0.000238424 
-0.0210554 -0.0257373 -0.0122408 0.00836166 0.0204367 0.0159056 0.000349348 -0.0127959 -0.0139848 -0.00466789 
0.00629708 0.00779348 0.00228052 -0.00374802 -0.00352334 0.000350744 0.00207777 0.000483186 -0.000664637 0.000282023 
0.000538382 0.000295129 -4.8787e-05 -0.000135941 -0.000282703 0.00102475 0.000407231 -0.000764484 -0.00266151 -0.0045988 
-0.0028484 -0.000753459 0.00360047 0.00297818 0.000308333 -0.00186039 -0.00141043 4.2214e-05 0.000479567 0.00120198 
0.00012842 -0.00181547 -0.000804524 0.00123709 0.00025419 -0.000956518 0.000282776 0.000101961 -0.000397268 0.000387162 
0.000251448 0.000245793 0.000791468 0.000238275 -0.000471531 -0.0011626 -0.00155442 -0.00104319 -0.000923134 -0.000485008 
-0.00024897 -0.000563815 -0.00130918 -0.00319279 -0.00571103 -0.00902196 -0.0126663 -0.0161264 -0.0192543 -0.0210734 
-0.0213065 -0.0189434 -0.0136958 -0.00530549 0.00564862 0.0178758 0.029394 0.0375723 0.0400123 0.0347285 
0.021561 0.00202262 -0.0196006 -0.0379427 -0.0466413 -0.0419316 -0.0232334 0.00412638 0.0309923 0.0462271 
0.0426169 0.0201963 -0.0112696 -0.03676 -0.0426663 -0.0255398 0.00509123 0.0309563 0.0363177 0.018491 
-0.00970996 -0.0283877 -0.0251259 -0.00401279 0.0175776 0.0230608 0.0100554 -0.00836675 -0.0166387 -0.0109062 
0.0028489 0.00970664 0.00642863 -0.00167925 -0.00491384 -0.00167549 0.00181244 0.00133534 -0.000544309 -1.49821e-05 
0.000605161 -0.000216114 6.59086e-05 9.2698e-06 0.000205674 0.000537029 -0.000968329 -0.000974905 -0.000227352 0.00124311 
0.00316928 0.00302583 0.00385046 0.00186339 0.001312 -0.00100384 -0.00280141 -0.00200356 0.00134223 0.00231634 
-0.00133303 -0.00178918 0.00142144 0.00143875 -0.000859423 2.8267e-05 0.000894158 -0.000479983 -6.96629e-05 0.000281698 
-0.00014445 0.000491387 0.000398735 -5.91167e-05 0.000787426 0.0015837 0.00281553 0.00346664 0.003332 0.00344007 
0.00274039 0.00198251 0.00090934 -0.000881314 -0.00291943 -0.00616924 -0.0100792 -0.0153225 -0.0212308 -0.027254 
-0.0324343 -0.0352257 -0.034655 -0.0293305 -0.0192252 -0.00445264 0.013003 0.0307809 0.045055 0.0523366 
0.0495356 0.0355298 0.0120826 -0.0160963 -0.0412875 -0.0554417 -0.0522041 -0.0309609 0.00233112 0.0350194 
0.0532448 0.0475255 0.0195037 -0.0176659 -0.0444227 -0.0457757 -0.0208405 0.0150962 0.0392071 0.0362779 
0.00944991 -0.0212064 -0.0335338 -0.0199275 0.00699237 0.0249351 0.0201704 -0.000532097 -0.0169239 -0.0179239 
-0.00398302 0.00853297 0.00997608 0.00198176 -0.00454095 -0.00334826 0.00103282 0.00191643 -0.00025734 -0.000340049 
0.000586296 -0.00037818 0.000420524 -0.000130818 0.000108034 -0.000167991 -0.000877038 0.000270701 0.000165784 -0.000986646 
-0.00200504 -0.00160606 0.00139362 0.0012165 -0.000506146 -0.00479434 -0.00314459 0.00257035 0.00497116 1.05088e-05 
-0.00327885 0.000620828 0.00204723 -0.000922651 -0.00100635 0.00093413 -0.000439352 -0.000845003 0.000528307 0.000161302 
0.000577965 0.00113965 0.000470407 0.00122101 0.00217187 0.00232475 0.0030564 0.00324565 0.00451501 0.00630316 
0.00800983 0.0103886 0.0118855 0.0127168 0.0123005 0.00979493 0.00555203 -0.00139774 -0.0100354 -0.0205729 
-0.0315409 -0.0417571 -0.0494774 -0.052562 -0.0497164 -0.0394853 -0.0225722 -9.80199e-05 0.0241449 0.046106 
0.0602148 0.0623755 0.0498302 0.0240646 -0.00965356 -0.0417108 -0.0612989 -0.0599102 -0.0359249 0.00288951 
0.0407025 0.0599446 0.0501382 0.0151936 -0.026694 -0.0518565 -0.0453907 -0.0116662 0.0270741 0.0448784 
0.0305754 -0.00383389 -0.0317278 -0.0327876 -0.00873677 0.0193777 0.0280654 0.0115223 -0.0109317 -0.0212486 
-0.0112056 0.00509538 0.0121914 0.00602643 -0.00336877 -0.00504893 -0.000250365 0.00251207 0.000348253 -0.000646443 
0.000563007 -0.000316995 0.000405399 -0.000481825 0.000171527 -0.000192889 -0.000150535 0.000305418 -0.00138646 -0.00206102 
0.000119847 0.0040784 0.00620998 0.0025323 -0.00135 -0.00253843 0.00274066 0.0040959 -0.000811936 -0.00495519 
-0.000886735 0.00252662 -0.000671189 -0.00144179 0.00119151 0.000462301 -0.00106204 0.000869799 0.000874258 0.000266138 
0.00126316 0.000639837 0.000659923 0.00223316 0.00243746 0.00358409 0.00535569 0.00696935 0.00979561 0.0120194 
0.0149583 0.0182379 0.0209426 0.0241597 0.0262085 0.0273538 0.0265262 0.0227675 0.015774 0.00466848 
-0.00944546 -0.0260483 -0.042591 -0.0569011 -0.0659619 -0.0673449 -0.0594533 -0.0419071 -0.0165494 0.0133847 
0.042082 0.0636544 0.0713819 0.0618235 0.0347333 -0.00356522 -0.0420756 -0.0666713 -0.066639 -0.0394624 
0.00476895 0.0464273 0.064532 0.0486148 0.00676303 -0.0371872 -0.0562841 -0.0390141 0.00259596 0.0389962 
0.0448871 0.0176368 -0.0200306 -0.0381655 -0.025102 0.00574958 0.0278325 0.0212549 -0.00210934 -0.0212967 
-0.0184789 -0.000863008 0.0126421 0.0108444 -0.000230785 -0.00615894 -0.00245517 0.00250625 0.00136722 -0.000738682 
0.000499095 -0.000267206 0.000187339 -0.000438409 0.000514437 -0.000212178 -0.000189253 -0.000889928 -0.00230445 -0.000680962 
0.00263963 0.00418935 0.00190653 -0.00279737 -0.00413855 -0.00278525 4.69147e-06 -0.0018103 -0.00219911 0.00107318 
0.00378462 0.000178235 -0.00134518 0.00188674 0.00114203 -0.0015725 0.000222274 0.0012952 -0.000542338 0.000627536 
0.000880901 -0.000147061 0.00145115 0.00210607 0.0021365 0.00402193 0.00461185 0.00602948 0.00832875 0.0110767 
0.0161163 0.0213908 0.0278113 0.0351525 0.0419027 0.0488149 0.0532182 0.0548848 0.0519018 0.0437233 
0.0301102 0.0112065 -0.0109125 -0.0346357 -0.0559976 -0.0723508 -0.0797972 -0.0766232 -0.0615608 -0.0359614 
-0.00306318 0.0314889 0.060217 0.0752484 0.0704523 0.0445784 0.0033884 -0.0398712 -0.0684354 -0.06877 
-0.0383348 0.00997267 0.0525753 0.0656891 0.0415388 -0.00647009 -0.0478594 -0.0560835 -0.0259942 0.0199109 
0.0475303 0.037416 -0.000579391 -0.0332662 -0.0352029 -0.00910364 0.0225165 0.028511 0.00928711 -0.0162045 
-0.0230922 -0.00823004 0.0101469 0.014456 0.00432499 -0.00563882 -0.00495196 0.0014461 0.0023877 -0.000517354 
0.000209873 -0.000202671 2.75846e-05 -9.0979e-05 0.000510087 -0.000606928 -0.000573367 -0.00145873 -0.0013462 0.00119485 
0.00281077 0.00203235 -0.000149709 -0.00206968 -0.00148242 0.000159398 0.00300683 0.00369566 0.00394458 0.000919685 
-0.00286131 -0.00300617 0.00159329 0.000877647 -0.00314489 -0.000942724 0.00188906 -0.00065443 -0.000438302 0.00151503 
-0.00053112 -8.5375e-05 0.00132459 6.3049e-05 0.000861686 0.00132637 0.000524452 0.00222649 0.00373691 0.0068924 
0.0111452 0.0154635 0.0225378 0.0308538 0.0414872 0.0536926 0.0651901 0.0757051 0.0819302 0.0831562 
0.0768935 0.0630512 0.0417678 0.0148367 -0.0143558 -0.0426446 -0.0653702 -0.0798944 -0.0827977 -0.0735341 
-0.0515173 -0.0198874 0.0170863 0.0508931 0.0726228 0.0732532 0.0499207 0.00763522 -0.0383209 -0.0686279 
-0.0672201 -0.0330818 0.0181038 0.0577977 0.0627869 0.029154 -0.0214475 -0.0548134 -0.048347 -0.0073979 
0.0353548 0.0474809 0.0200602 -0.0214789 -0.039729 -0.0248165 0.0107104 0.0299814 0.0193977 -0.00801663 
-0.0244257 -0.015443 0.00567903 0.0164816 0.00943014 -0.00327801 -0.00684799 -0.000696876 0.00290941 3.59783e-05 
-0.00025213 5.51027e-05 -2.14505e-05 0.00019473 0.000122628 -0.000826602 -0.000608173 -0.00138796 -0.000657273 0.000871144 
0.00134897 0.00155233 0.0013709 6.6093e-05 -0.000369781 0.000438051 0.00175926 -0.00101321 -0.00508272 -0.00654408 
-0.00110738 0.00459878 0.00299681 -0.00298201 -0.000642706 0.00395959 0.00056768 -0.001616 0.00186537 7.93761e-05 
-0.00210667 3.6734e-05 -0.00156981 -0.00312281 -0.00265853 -0.00576091 -0.00723705 -0.00783686 -0.00968004 -0.0093926 
-0.00958725 -0.00711722 -0.000862607 0.00790805 0.0215876 0.0371905 0.0552729 0.0736955 0.0899183 0.102219 
0.106919 0.103403 0.0897264 0.0681043 0.03982 0.00901605 -0.0211147 -0.0471326 -0.066041 -0.0759932 
-0.0744545 -0.0607079 -0.0343209 0.000785407 0.0377671 0.0649748 0.0716813 0.0517845 0.0103774 -0.0361985 
-0.0654757 -0.0610219 -0.0234557 0.0269372 0.0591273 0.0529055 0.0113809 -0.0352885 -0.0543474 -0.0313416 
0.0139358 0.0452039 0.0378166 -0.00222307 -0.0338784 -0.0347463 -0.0035915 0.0262708 0.0274837 0.00284061 
-0.0214113 -0.0214607 -0.000888339 0.0160991 0.0139176 0.000499822 -0.00722955 -0.00320007 0.00245583 0.000680535 
-0.000750637 0.000434313 -0.000178242 0.000299443 -0.000256428 -0.000706465 -0.000761484 -0.00161268 -0.000724747 0.000691324 
0.00243102 0.00356788 0.00146485 -0.00295898 -0.00435576 -0.00234584 -0.000114434 -0.000961156 0.000516273 0.00519469 
0.0078727 0.00188799 -0.00505196 -0.00260608 0.00371362 -9.1478e-05 -0.00459372 1.10853e-05 0.000726763 -0.00426756 
-0.00237194 -0.00230157 -0.00652258 -0.00677589 -0.0101131 -0.0157949 -0.0182159 -0.0242068 -0.0298403 -0.0348974 
-0.0408066 -0.0424575 -0.0424929 -0.038059 -0.0278572 -0.0133307 0.00823353 0.0327366 0.059962 0.0851063 
0.104685 0.115555 0.114946 0.10414 0.0834724 0.0581049 0.0299404 0.00352959 -0.0206747 -0.0405991 
-0.0560924 -0.0639144 -0.0612735 -0.0446313 -0.0149673 0.0218456 0.0526221 0.0644496 0.0481912 0.00954067 
-0.0347327 -0.059303 -0.0502079 -0.00999814 0.0346951 0.0553907 0.0360571 -0.00814491 -0.0440778 -0.0441453 
-0.00899936 0.0299244 0.0429219 0.0148398 -0.022205 -0.0373296 -0.0172744 0.0166007 0.0300236 0.0129088 
-0.0144288 -0.0237971 -0.00764012 0.0136385 0.0170519 0.00434801 -0.00645421 -0.00516042 0.001376 0.00113751 
-0.00114967 0.000831893 -0.000424243 0.00041875 -0.000453485 -0.000615638 -0.00119134 -0.00171638 -0.000379828 0.00157621 
0.00352964 0.00234872 -0.00231276 -0.00488572 -0.000850794 0.00469885 0.00615468 0.0028566 0.000722233 -0.00164365 
-0.00567729 -0.00778356 -0.00174432 0.00465142 0.000884545 -0.00498774 0.000249627 0.00369361 -0.0029858 -0.00374208 
-0.000864437 -0.00671892 -0.00941706 -0.0108777 -0.019244 -0.0246131 -0.0314883 -0.0433468 -0.0526978 -0.0657327 
-0.0780534 -0.0879963 -0.0973818 -0.0993729 -0.0964449 -0.0850175 -0.0644057 -0.0370289 -0.00245171 0.0320754 
0.0645418 0.0879195 0.100633 0.1008 0.0904343 0.0738706 0.0545142 0.0374514 0.0216561 0.00797276 
-0.00828127 -0.0256326 -0.0431786 -0.0526071 -0.0487722 -0.026545 0.00666257 0.0396154 0.0537974 0.0418797 
0.00614696 -0.0318405 -0.0505042 -0.0353549 0.00309815 0.0382459 0.0440323 0.0148704 -0.0242601 -0.0426899 
-0.0230429 0.0132712 0.0389141 0.0267519 -0.00827826 -0.0326243 -0.0248487 0.00614852 0.0282396 0.0200546 
-0.00656777 -0.0230015 -0.0134913 0.00957849 0.0191856 0.00823223 -0.0053618 -0.00681157 3.97888e-05 0.00138934 
-0.00134669 0.00112965 -0.000630735 0.000640253 -0.000605355 -0.000735886 -0.00163163 -0.00157007 6.24148e-05 0.00223571 
0.0032016 0.000364357 -0.00270806 -0.00131218 0.00278802 0.00232756 -0.00283524 -0.00756521 -0.0062362 -0.00216702 
0.00288423 0.00710853 0.00740538 0.000277612 -0.00501031 0.000274664 0.00467811 -0.00296805 -0.0067697 -0.00171581 
-0.00592809 -0.0119941 -0.0107603 -0.0176692 -0.0264381 -0.0311603 -0.0441479 -0.0569339 -0.0705134 -0.0906238 
-0.10801 -0.128086 -0.146175 -0.158668 -0.167751 -0.164275 -0.150985 -0.124205 -0.0867693 -0.0441781 
0.00018966 0.0361063 0.0619737 0.0711465 0.068112 0.0549592 0.040534 0.0301862 0.0268554 0.0290649 
0.0298988 0.0237304 0.00636574 -0.0174048 -0.0393285 -0.0467471 -0.0344955 -0.00524597 0.0258052 0.0421581 
0.0329499 0.00351783 -0.0265933 -0.0372613 -0.0185835 0.0131912 0.0353749 0.0261919 -0.00493119 -0.0328456 
-0.0296548 -0.00182207 0.0279667 0.0305765 0.00341433 -0.0256443 -0.0281718 -0.00348928 0.023301 0.0245572 
0.00130791 -0.0196398 -0.0174345 0.00405706 0.0194796 0.0123302 -0.0036182 -0.0084612 -0.00164746 0.00143101 
-0.00129352 0.00126196 -0.000695814 0.000794373 -0.000936939 -0.00100787 -0.00184569 -0.00123523 0.000532012 0.00265841 
0.00246906 -0.000447339 -0.00159747 -0.0004445 7.48399e-05 -0.00158599 -0.00128423 0.0023765 0.00759245 0.00830697 
0.00429471 -0.00297134 -0.00847507 -0.00773019 0.000232078 0.00351413 -0.00417201 -0.00816927 -0.00106611 -0.00171249 
-0.010187 -0.00823866 -0.00992363 -0.0204204 -0.0231817 -0.0301821 -0.0440836 -0.0534304 -0.071679 -0.0926655 
-0.113706 -0.142208 -0.167366 -0.193475 -0.213983 -0.22172 -0.21885 -0.196602 -0.161789 -0.113792 
-0.0614433 -0.0134414 0.0234573 0.0400104 0.0395511 0.0226678 0.00346969 -0.0116971 -0.0113175 0.00204905 
0.0250705 0.0437584 0.049513 0.0350898 0.00731064 -0.0239192 -0.0412272 -0.0383993 -0.0150041 0.0120869 
0.0292777 0.0229184 0.00264804 -0.0192509 -0.0213785 -0.00552851 0.0168334 0.0239552 0.00800812 -0.0170345 
-0.0255583 -0.00969878 0.0164679 0.0275601 0.012044 -0.0162338 -0.0269049 -0.0102961 0.0161364 0.0253271 
0.0078875 -0.0148755 -0.018752 -0.00135453 0.017362 0.0155596 -0.000908715 -0.00971562 -0.00381979 0.00106036 
-0.000896338 0.00117592 -0.000571503 0.000758778 -0.00124952 -0.00109741 -0.00180223 -0.00100023 0.000833124 0.00274408 
0.00177401 -0.000410509 -0.0010663 -0.00132061 -0.000644459 0.00109491 0.00278543 0.000979003 -0.00326063 -0.00804029 
-0.00912037 -0.00562929 0.00198677 0.00768434 0.00581004 -0.00302056 -0.00484572 0.00315664 0.00331007 -0.0070069 
-0.00655394 -0.00198775 -0.0104789 -0.0127593 -0.00996053 -0.0185787 -0.0227666 -0.0276231 -0.0436717 -0.0566426 
-0.079305 -0.108968 -0.139544 -0.178283 -0.209618 -0.235475 -0.247691 -0.238585 -0.211832 -0.161835 
-0.102872 -0.0396107 0.0104673 0.0395347 0.0421835 0.020194 -0.0130703 -0.0468789 -0.0624949 -0.0573373 
-0.0276745 0.010316 0.0466815 0.0615515 0.054814 0.0250747 -0.00785779 -0.0340048 -0.0366518 -0.0225496 
0.00231649 0.0169499 0.017295 0.00387176 -0.00816319 -0.00773796 0.00100794 0.0109192 0.00712163 -0.00747986 
-0.0166087 -0.0101124 0.00900149 0.0200255 0.0132317 -0.00834299 -0.0226129 -0.0130991 0.00962469 0.0228405 
0.0120861 -0.00996651 -0.0180984 -0.00521749 0.013858 0.0167858 0.00201135 -0.010059 -0.00607908 0.000130082 
-9.46499e-05 0.00087814 -0.000268579 0.000485101 -0.00142422 -0.00113264 -0.00184365 -0.000954278 0.00119688 0.00279773 
0.00138276 -0.000346057 -0.00168305 -0.00206768 0.000666038 0.00263733 0.000381272 -0.00359618 -0.00222434 0.00355756 
0.00901808 0.00974405 0.00561378 -0.00222824 -0.00765164 -0.00519148 0.00289195 0.00138503 -0.00855884 -0.0069819 
0.00357782 0.000796616 -0.00134715 0.0105967 0.0135339 0.0152775 0.0276899 0.02894 0.0286497 0.0278573 
0.00924065 -0.0131893 -0.0494608 -0.096874 -0.142858 -0.192642 -0.224903 -0.239019 -0.225971 -0.182885 
-0.121311 -0.0453004 0.020076 0.0685119 0.081625 0.0638869 0.0193136 -0.0339077 -0.0781809 -0.0988764 
-0.0881098 -0.0529912 -0.00360066 0.0390239 0.0641653 0.0610345 0.0372787 0.00190341 -0.0260942 -0.0368546 
-0.0271489 -0.00608337 0.0101187 0.0161328 0.00799437 0.0030877 -0.000749322 0.000612537 0.000567496 -0.0070082 
-0.00988491 -0.00617399 0.00752038 0.0154076 0.00986548 -0.00463079 -0.0173694 -0.012702 0.00553209 0.0189649 
0.0133891 -0.00600754 -0.0166345 -0.00751942 0.0105617 0.0164302 0.00410808 -0.00981082 -0.00793382 -0.00125677 
0.00110476 0.000325633 0.000131457 2.21067e-05 -0.0013627 -0.00122553 -0.00198744 -0.000846953 0.00168796 0.00267445 
0.00100133 -0.000605563 -0.00222612 -0.00100405 0.00266092 0.00177696 -0.00243585 -0.00264115 0.00238623 0.0033948 
-0.00246138 -0.00930373 -0.0109488 -0.00664971 0.000932723 0.00534986 0.00203753 -0.00475863 0.000579235 0.0134659 
0.0141329 0.0116448 0.0283584 0.0442426 0.0529879 0.0790091 0.105072 0.122277 0.148529 0.160289 
0.157448 0.145782 0.105261 0.0526811 -0.0157976 -0.0925784 -0.155571 -0.20516 -0.217264 -0.195906 
-0.138808 -0.0578141 0.0254164 0.0978267 0.133666 0.135096 0.094342 0.034971 -0.0331656 -0.0828657 
-0.10792 -0.0985571 -0.0659305 -0.0177343 0.0260312 0.0563824 0.0601262 0.0430416 0.00846239 -0.021009 
-0.0382452 -0.0288135 -0.0100663 0.0125125 0.0175586 0.0138807 0.00621085 -0.0039988 -0.00552408 -0.0106564 
-0.00815282 -0.00168353 0.00811871 0.0139504 0.00599892 -0.00600434 -0.0138984 -0.0104488 0.00377842 0.0155295 
0.0128549 -0.00318825 -0.0148398 -0.00910192 0.00754805 0.0154074 0.00545377 -0.00944403 -0.00931241 -0.00279276 
0.00264434 -0.000499854 0.000632135 -0.000511896 -0.00111157 -0.00150444 -0.00208423 -0.000510351 0.00212082 0.00229612 
0.000700577 -0.00086436 -0.00218154 0.00022852 0.00215794 -0.00111765 -0.00275138 0.00102904 0.003663 -0.000323091 
-0.00339127 0.000812846 0.0077375 0.0105783 0.00698177 0.000762724 -0.00102774 0.00557297 0.0150928 0.014482 
0.01393 0.0337469 0.0607639 0.0778954 0.112293 0.161826 0.201254 0.250753 0.302737 0.331969 
0.35493 0.350012 0.310161 0.24959 0.152621 0.0468536 -0.0603568 -0.152873 -0.203861 -0.216882 
-0.175864 -0.103402 -0.00781189 0.0824367 0.147004 0.175629 0.158473 0.113646 0.0463879 -0.0139299 
-0.0647389 -0.0858521 -0.088094 -0.0627366 -0.0295367 0.0137377 0.0421185 0.0565804 0.0401117 0.0108638 
-0.0249038 -0.0386168 -0.0300824 -0.00363065 0.0195454 0.0217141 0.0172784 -0.001684 -0.0105849 -0.01526 
-0.011012 0.00204925 0.0114914 0.0149409 0.00508015 -0.0090497 -0.0136037 -0.00752483 0.0039906 0.0123984 
0.0106438 -0.00172471 -0.0124921 -0.00952431 0.00470773 0.01366 0.00621204 -0.00891596 -0.0103093 -0.00422539 
0.00433882 -0.00158745 0.00122752 -0.00103106 -0.000773059 -0.0019284 -0.00199724 -0.000145106 0.00219131 0.00181031 
0.000602345 -0.00109908 -0.00187184 0.000880341 0.00109428 -0.00118487 0.000395579 0.00240199 -0.000498164 -0.0040272 
-0.00122472 0.00292259 0.00051323 -0.00526758 -0.00807308 -0.00378891 0.00400862 0.00917663 0.0102763 0.0168069 
0.0415289 0.0728245 0.0959217 0.132671 0.196308 0.256343 0.32164 0.407031 0.476295 0.533464 
0.578874 0.576884 0.542831 0.465504 0.341473 0.202223 0.0439749 -0.0923593 -0.193767 -0.246318 
-0.234761 -0.181159 -0.0856266 0.00993687 0.0967746 0.146387 0.160639 0.140739 0.0995249 0.0531101 
0.00726831 -0.0261288 -0.0520512 -0.0603264 -0.0567986 -0.0322093 0.000297833 0.0341986 0.0479726 0.0358797 
0.0040217 -0.0291914 -0.0371523 -0.023457 0.01025 0.0223132 0.0245608 0.00740352 -0.0109466 -0.0181539 
-0.0163933 0.00029413 0.0150611 0.0169725 0.00560108 -0.010966 -0.0156893 -0.00552475 0.00689711 0.0111782 
0.00719581 -0.00243254 -0.0105644 -0.00867352 0.00275409 0.0114638 0.00616325 -0.00818517 -0.0109934 -0.00522373 
0.00607659 -0.00279108 0.00194494 -0.00148631 -0.000470795 -0.00238511 -0.00172027 8.63626e-05 0.00204936 0.00156153 
0.000641181 -0.0013138 -0.00136668 0.00103877 0.000254377 -0.000450601 0.000784387 -0.000783507 -0.00270734 0.000532615 