# vtk DataFile Version 2.0
Titre
ASCII
DATASET STRUCTURED_POINTS
DIMENSIONS 100 100 1
ORIGIN 0.0 0.0 0.0
SPACING 0.1 0.1 0.0
POINT_DATA 10000 
SCALARS rho float
LOOKUP_TABLE default
0.00206263 -0.000301933 7.19526e-05 -0.000764072 -0.000265003 0.00078054 0.000505955 5.97105e-05 0.000313534 0.000616644 
0.000509132 0.000106124 7.8774e-05 0.000312483 0.000296379 -2.17187e-05 -0.000201191 5.11041e-05 0.000527958 0.000430499 
-0.000868595 -0.00249156 -0.00274417 -0.00079089 0.00233805 0.0044903 0.00422561 0.00195977 -0.000715569 -0.00243063 
-0.00261943 -0.0016676 -0.000340778 0.000681819 0.00102121 0.000681095 -4.44971e-05 -0.000767375 -0.00115406 -0.00109523 
-0.000646051 -1.13842e-05 0.000577598 0.000958337 0.00105327 0.000884523 0.000541809 0.00012487 -0.000258829 -0.00055524 
-0.000720068 -0.000771464 -0.000717675 -0.000609151 -0.000468658 -0.000332446 -0.000209134 -9.9924e-05 5.54075e-06 0.000121185 
0.000246472 0.000366641 0.000444704 0.00043148 0.000309369 6.29911e-05 -0.000259013 -0.000589836 -0.000851361 -0.00100869 
-0.000946658 -0.000624285 -0.000146586 0.000227858 0.000405518 0.000317896 1.05242e-05 -0.000445634 -0.000709502 -0.000643978 
-0.000302767 -2.78971e-05 7.49406e-05 5.20702e-05 2.76059e-05 0.000100848 0.000154209 0.000217826 0.000122525 -0.000113921 
-0.000363743 -0.000502475 -0.000362169 -4.8646e-06 0.000265904 0.000279492 7.22411e-05 -0.000228818 0.000665203 0.000996394 
-0.000188602 -0.00267649 0.000400797 -0.000178846 0.00102165 0.000586487 -7.50172e-05 0.000462346 0.000704144 0.000353494 
-5.45474e-05 8.87002e-05 0.000286186 0.000117708 -6.58672e-05 1.3787e-06 0.000197034 0.00033072 6.1916e-05 -0.00139652 
-0.0029496 -0.00211772 0.00169127 0.00593055 0.00680135 0.00300489 -0.0028666 -0.00667942 -0.00652948 -0.00324615 
0.000775868 0.00331348 0.00359971 0.00204999 -0.000208807 -0.00198578 -0.00258294 -0.00194928 -0.0005534 0.000889814 
0.00187071 0.0020671 0.00159546 0.000700464 -0.000263131 -0.00102333 -0.00142779 -0.00145426 -0.00117825 -0.000713737 
-0.000194367 0.000286775 0.000649786 0.000868603 0.000927785 0.000850212 0.000661244 0.000408446 0.000145252 -7.79917e-05 
-0.000197146 -0.000196422 -5.15231e-05 0.00017561 0.000425619 0.000579969 0.000555847 0.00030179 -0.000130308 -0.000622325 
-0.000974565 -0.00102011 -0.000645598 5.4668e-05 0.000856387 0.00143988 0.00159818 0.00125884 0.000634425 3.13064e-05 
-0.000202179 -7.9248e-05 0.00025395 0.000405728 0.000324607 1.99583e-05 -0.000142637 -6.95141e-05 0.00029773 0.000609953 
0.000564001 0.000213295 -0.000334096 -0.000580003 -0.000387583 9.49182e-05 0.000275835 -0.000603093 -0.00115875 -0.000789468 
4.61324e-05 -1.55241e-05 0.00218511 -3.60726e-05 0.000731597 -0.000263077 0.000396884 0.000850194 0.000178537 -0.00022799 
0.000136433 0.000382061 -1.86751e-07 -0.000252489 -5.40849e-05 0.000204976 0.000232986 1.13582e-05 -0.00127464 -0.00295453 
-0.00203745 0.00187291 0.0054611 0.00483911 -0.00013156 -0.00517923 -0.00569971 -0.00154142 0.0035984 0.00630722 
0.00521984 0.00169594 -0.00201765 -0.00421383 -0.00419126 -0.00235239 0.000132713 0.00216644 0.00293149 0.00242001 
0.00102614 -0.000570713 -0.00175776 -0.00225806 -0.00203786 -0.00131265 -0.000392011 0.000482337 0.00110099 0.00143975 
0.00147048 0.00131414 0.00100236 0.000653092 0.000278716 -7.04991e-05 -0.000394691 -0.000688038 -0.000925168 -0.00109422 
-0.00113479 -0.00101726 -0.000703016 -0.000206873 0.000402985 0.00100077 0.00143131 0.00153509 0.00126373 0.000648705 
-9.0475e-05 -0.000703976 -0.000926171 -0.000668372 -2.17117e-05 0.000681932 0.00110611 0.00100282 0.000447851 -0.000266298 
-0.000697933 -0.000605735 -5.80457e-05 0.000581168 0.000822976 0.000585997 -4.53597e-05 -0.000513581 -0.000610451 -0.00024861 
0.000225239 0.000449713 0.000475065 0.000160213 -0.000113802 -6.40565e-05 0.00100165 0.00122336 0.000860011 0.000122521 
-0.000240308 -0.000339431 0.000785183 -0.000901763 0.00119697 0.000357221 0.000985987 0.000198298 -0.000443134 0.000169563 
0.000341656 -0.000258049 -0.000472037 -3.97318e-05 0.000337073 0.000305618 9.74927e-05 -0.000924639 -0.00284467 -0.00244842 
0.00137922 0.00502902 0.00474502 0.000549982 -0.00327923 -0.00280701 0.00103089 0.00348961 0.00232476 -0.00124763 
-0.00445464 -0.0051055 -0.00329471 -0.000199019 0.00270135 0.00412784 0.00372923 0.00196825 -0.000308925 -0.00202945 
-0.00276597 -0.00232904 -0.00118242 0.000173711 0.0012642 0.00180161 0.00178608 0.00134162 0.0007103 9.35347e-05 
-0.000348416 -0.000554176 -0.000530517 -0.000336971 -7.08225e-05 0.000177819 0.000312 0.000290604 7.38091e-05 -0.000269097 
-0.000695733 -0.00102956 -0.00118802 -0.00102351 -0.000553781 0.000147554 0.000858826 0.00131991 0.00127951 0.000680929 
-0.000369007 -0.00145406 -0.00215468 -0.00207245 -0.00119517 0.000193774 0.00141895 0.00195895 0.00148983 0.000344097 
-0.000892394 -0.00147749 -0.00118851 -0.000210785 0.000727554 0.00112885 0.000826897 0.000183422 -0.000245167 -0.000305486 
-0.000107227 -6.26083e-05 -0.000149984 -8.7919e-05 -0.000111405 -0.000854557 -0.000756525 -0.000363417 -0.000106312 -0.000180215 
-0.000202682 0.000931996 0.00148408 0.000238528 0.00150812 -0.000926503 -5.5895e-06 -0.000778555 -0.00014195 0.000285924 
-0.0004518 -0.000361445 0.000279135 0.000504242 0.000335524 0.000165348 -0.000547652 -0.00259184 -0.00308571 0.000462784 
0.00449483 0.00486433 0.00126817 -0.00266882 -0.00301372 -0.00021391 0.00144201 0.000211858 -0.00134017 -0.00131868 
0.000638485 0.00288101 0.00378623 0.00308581 0.00112123 -0.00132113 -0.00304429 -0.00363329 -0.00285655 -0.00123432 
0.000505007 0.0017683 0.00211824 0.00168322 0.000732786 -0.000339237 -0.00113365 -0.0015667 -0.00150459 -0.00116045 
-0.000559238 5.15855e-05 0.000662284 0.00113426 0.00147496 0.00164342 0.00159566 0.00134852 0.000820937 0.000110254 
-0.000782721 -0.00163374 -0.00229005 -0.00247616 -0.002073 -0.00101626 0.000432156 0.00196349 0.00296357 0.00311589 
0.00215247 0.000442228 -0.00146926 -0.00267438 -0.00272195 -0.00140129 0.000539509 0.00228841 0.00283609 0.00206243 
0.000357213 -0.00116484 -0.00176115 -0.00113312 3.29806e-05 0.000915246 0.00093055 0.000241593 -0.000397598 -0.000463379 
0.000131266 0.00056371 0.000416434 2.32476e-05 0.000696576 0.000767421 0.000746062 0.000757241 0.000845764 0.0003414 
0.000526352 0.00154205 0.000345178 -0.000412112 0.000116753 -0.000919141 0.00126004 -4.60103e-05 0.000624625 -1.95455e-05 
-9.0861e-05 0.000619473 0.000236144 -2.65053e-05 0.000187188 -0.000177675 -0.00220871 -0.00363095 -0.000706772 0.00382797 
0.00496032 0.00212073 -0.00187374 -0.00298461 -0.000562545 0.00164999 0.00104643 5.27735e-05 0.000192491 0.000571311 
0.000344285 -0.00104622 -0.00243344 -0.00288131 -0.00237768 -0.00092855 0.000948514 0.00237936 0.00318981 0.00283918 
0.0017496 0.000222526 -0.00112077 -0.00187554 -0.00198438 -0.00151368 -0.000798531 -0.000121751 0.000351386 0.000499168 
0.000452349 0.000261766 0.000146437 0.000155835 0.000396466 0.000802281 0.00130097 0.00170704 0.00185799 0.00156742 
0.000797386 -0.000415696 -0.00181303 -0.00301864 -0.00363878 -0.00327762 -0.00195552 0.000147108 0.00229556 0.00377126 
0.00382146 0.00234716 -0.000297174 -0.00291599 -0.00450649 -0.00414698 -0.00213396 0.000630699 0.00258844 0.00281918 
0.00126002 -0.000973216 -0.00246856 -0.0023201 -0.000758047 0.000990134 0.0018219 0.00120528 -7.65655e-05 -0.00109835 
-0.00102396 -0.000126128 0.00027851 -0.000743997 -0.00110471 -0.000888763 -0.000469757 -0.000324326 0.000323591 0.000712827 
0.00069505 0.000440955 -0.000626626 -0.000392726 0.000104155 -0.000183241 0.000339927 -0.00160368 -8.71301e-05 -0.000554331 
6.95186e-05 -0.0003204 -0.000548627 0.000670541 0.00055262 -0.0016101 -0.00371953 -0.00177731 0.00288816 0.0047641 
0.00280634 -0.000847012 -0.00286785 -0.00121095 0.00128953 0.00107388 -0.000350424 -0.000457684 -0.000505972 -0.000650544 
-0.000649289 -9.69079e-05 0.00132363 0.002475 0.00268597 0.00219043 0.000733858 -0.000910033 -0.00228302 -0.00316927 
-0.00306067 -0.00227511 -0.000932633 0.000389666 0.00127115 0.0015976 0.00118653 0.000460355 -0.00053458 -0.00134735 
-0.00195234 -0.00214662 -0.00197404 -0.00143514 -0.000551846 0.000518374 0.00177499 0.00286985 0.00374965 0.00395442 
0.00344836 0.00199833 -0.000131464 -0.00259509 -0.00468871 -0.00573492 -0.00514283 -0.00289863 0.00055064 0.00404906 
0.00631236 0.00634082 0.00393923 7.50406e-05 -0.00357438 -0.00524973 -0.00412536 -0.000801485 0.0028842 0.00481415 
0.00397219 0.000904909 -0.00238501 -0.0039781 -0.00306516 -0.000661354 0.00149835 0.00207313 0.00115847 -0.000156856 
-0.000903655 -0.000271377 0.0013856 0.00126195 0.000463006 -0.00011882 0.000288493 0.000235402 9.45079e-05 0.000316413 
0.000549725 9.268e-05 -0.000178286 0.000285368 0.000575881 9.84999e-05 0.000188363 1.59874e-05 0.00166236 9.09408e-05 
0.000321449 8.58893e-05 0.00155299 0.00149571 -0.00146474 -0.00374435 -0.00275521 0.00132949 0.00383975 0.00310804 
0.000444648 -0.00231645 -0.00194082 0.000709787 0.00133918 -0.000154768 -0.000431594 -0.000102957 -0.000183311 0.000305084 
0.00059751 0.000752069 0.000314613 -0.00101371 -0.00205582 -0.00235329 -0.00207746 -0.000716932 0.000655079 0.00208477 
0.00306784 0.00328302 0.00282129 0.00167711 0.000311445 -0.000966727 -0.00196191 -0.00241479 -0.00265677 -0.00255232 
-0.00254966 -0.00247854 -0.00249988 -0.00236426 -0.00193728 -0.00107551 0.00037368 0.00220072 0.0042778 0.00599948 
0.00698276 0.00659312 0.00475457 0.00145134 -0.0024198 -0.00604174 -0.00791182 -0.00742099 -0.0041743 0.000728668 
0.00571969 0.00857195 0.00806183 0.00401157 -0.00172437 -0.00660373 -0.00808064 -0.00554477 -0.000295053 0.00454168 
0.00638042 0.00428363 -5.83623e-05 -0.00374919 -0.00455627 -0.00242262 0.00056533 0.00217179 0.00150861 -6.04182e-05 
-0.00146558 -0.00215117 -0.000693057 0.000275039 5.60388e-05 -0.00101427 -0.000816865 -9.98709e-05 0.000266685 0.000284813 
0.000398298 -0.00021542 -0.000427731 -0.000160657 -0.000353866 -0.00103232 -0.000640719 -0.000590227 -0.000511793 -0.00168446 
0.000103155 0.000633104 0.000857077 -0.00204243 -0.0038304 -0.0027318 -0.000109627 0.00254776 0.00333545 0.00220498 
-0.000986622 -0.00245497 -9.82387e-05 0.00155744 0.000247669 -0.000641025 -0.000112013 -0.000242634 4.44727e-05 0.000343855 
-4.83097e-05 -0.000144418 -0.000360536 -0.000176034 0.000863765 0.00150988 0.00185609 0.00171579 0.00069556 -0.000177466 
-0.00132282 -0.00207346 -0.00231973 -0.00207565 -0.0011997 -0.000243796 0.00076975 0.00129455 0.00130509 0.000720136 
-0.000426086 -0.00181313 -0.00335643 -0.00456863 -0.00534091 -0.00518672 -0.00410725 -0.00186867 0.00115551 0.00460554 
0.00765897 0.00940684 0.00916132 0.00632886 0.00145003 -0.00467586 -0.0100101 -0.0129151 -0.0117626 -0.00675502 
0.000908107 0.00807097 0.0120173 0.0106304 0.00463382 -0.00330079 -0.0089942 -0.0096494 -0.0049229 0.00218087 
0.00743156 0.00779516 0.00337449 -0.00247054 -0.00595618 -0.00492686 -0.000990965 0.00266405 0.0031318 0.00137639 
3.6689e-06 -0.00116741 -0.000301047 0.000848478 0.00147463 0.000296655 -0.000642607 -0.00053358 -0.000160639 9.86797e-05 
0.000137529 -0.000709203 -0.000295935 9.67153e-05 8.63562e-05 0.000171943 0.00125279 0.00111543 0.00113995 0.00113798 
0.00211275 0.000710462 -0.000402775 -0.00188182 -0.00102884 -0.000756592 0.000348991 0.00282038 0.00357251 0.00054169 
-0.00292715 -0.00140044 0.00129852 0.000555124 -0.00081809 -0.000249074 -2.51867e-05 -0.000117818 0.000446643 2.2807e-05 
-7.45876e-05 0.000226995 1.64349e-05 0.000105126 -9.37851e-05 -0.000944902 -0.00104489 -0.00117623 -0.000650859 0.000322038 
0.00111808 0.00222452 0.00299849 0.00350379 0.00367437 0.00322222 0.00266035 0.00158828 0.000671243 -0.00058365 
-0.00184174 -0.0034131 -0.00525331 -0.00713262 -0.0089957 -0.0100322 -0.0101355 -0.00839338 -0.00503614 0.000105901 
0.00597329 0.011558 0.0151936 0.0156187 0.0120347 0.00489917 -0.0040981 -0.0122505 -0.016498 -0.0150583 
-0.00779287 0.00255042 0.0118264 0.015669 0.0121466 0.00276329 -0.00767804 -0.0136608 -0.0120203 -0.0039636 
0.00537046 0.0104666 0.00842972 0.00157305 -0.00526387 -0.00735193 -0.00417723 0.00130753 0.00404879 0.00189317 
-0.000738826 -0.00268301 -0.00194773 -0.000551774 0.000739479 0.000499674 -0.000378464 -0.000456333 -0.000134338 -0.00015665 
-0.000258344 -0.000559153 0.000215131 0.000213794 -2.45576e-05 -0.000136407 -0.000160406 -0.00151863 -0.00160347 -0.00153587 
-0.000842096 -0.000987002 -0.000487073 -0.00161359 -0.0029293 -0.00344852 0.000975819 0.00458087 0.00220393 -0.0026662 
-0.0024798 0.00104133 0.00104834 -0.000473585 -9.61707e-05 0.000284365 -0.000266333 0.000258924 0.000269314 -0.000218307 
0.000343969 0.000104287 -0.000290147 -5.10469e-05 -0.000193208 0.000325527 0.00131555 0.00138427 0.00160246 0.000925535 
0.000321792 1.46331e-05 -0.000290022 3.11521e-05 0.000538445 0.00149763 0.00279378 0.0040575 0.00531511 0.00570695 
0.00542747 0.00374856 0.00103637 -0.00277875 -0.00716019 -0.011381 -0.0147203 -0.0159953 -0.0147106 -0.0101345 
-0.002985 0.00603518 0.0144773 0.0204934 0.0214247 0.0166165 0.00636702 -0.00638989 -0.0176445 -0.0229581 
-0.0198298 -0.00877155 0.00583742 0.0176974 0.0210456 0.0142522 0.000741769 -0.0120712 -0.0172097 -0.0120876 
-0.000647847 0.00966893 0.0122903 0.00658931 -0.0026343 -0.0085189 -0.0076641 -0.00133493 0.00552875 0.00582218 
0.00231391 -0.00189139 -0.00236698 -0.000722922 0.00100014 0.000994229 -0.000190853 -0.000690112 -0.000216711 -0.000112168 
-0.000318676 -0.000178431 0.000232681 -0.000152194 -0.000210675 -0.00020686 1.5161e-05 0.000160679 0.00199356 0.00290381 
0.00354738 0.00217733 -0.000304432 -0.0037092 -0.00365177 0.000940895 0.00637558 0.00409637 -0.00164458 -0.00269333 
0.000815672 0.00131261 -0.000330672 1.75789e-05 0.000195613 -0.000710056 -0.000183815 0.000593486 -0.000194373 0.000126092 
0.000300449 -0.000570402 -0.000351602 -9.48736e-05 -0.000122431 0.000532511 -3.83927e-05 -0.000814737 -0.000939374 -0.00104189 
7.85419e-05 0.0011832 0.00242201 0.00381098 0.0047283 0.0060115 0.00694459 0.00810893 0.0089695 0.00950964 
0.00952871 0.00837803 0.0062034 0.00216912 -0.00307753 -0.00970014 -0.0163015 -0.0219055 -0.0247873 -0.0235619 
-0.017677 -0.00713077 0.00592434 0.019051 0.0281312 0.0303737 0.0237095 0.00959253 -0.0082414 -0.0233037 
-0.0298001 -0.024256 -0.00865234 0.010459 0.0238591 0.0248822 0.0130508 -0.00492201 -0.0185934 -0.0201443 
-0.00946359 0.00570803 0.0150764 0.0130576 0.00259424 -0.00771257 -0.011021 -0.00698156 0.00210879 0.00657334 
0.00497302 -0.000706608 -0.00371256 -0.00258474 0.000177058 0.00135212 0.000402201 -0.000607473 -0.000320046 -5.46879e-05 
-0.000283811 -6.72348e-05 -3.91211e-05 -9.28047e-05 3.92094e-05 5.25338e-05 0.000389822 0.000335074 0.000392155 -0.00118918 
-0.00237088 -0.00438224 -0.00512423 -0.00413547 4.66395e-05 0.0036722 0.00265237 -0.00196381 -0.00232579 0.00027958 
0.000484624 -0.00114002 2.00119e-05 0.000370602 -0.00115516 -0.000508204 0.00108338 0.000127983 -0.000288606 0.000533067 
-0.000453446 -0.000621299 0.000192429 9.71541e-05 0.000411517 0.000410799 -0.000581928 -0.000136051 1.19352e-05 0.000202603 
0.000463654 -6.17546e-05 -0.000181853 -0.000319277 0.000170545 0.00182364 0.00403318 0.00760967 0.0113347 0.0155853 
0.0190822 0.0213871 0.021663 0.0188649 0.0131728 0.00398037 -0.0070787 -0.0191356 -0.0293545 -0.0357306 
-0.035774 -0.0285426 -0.0144183 0.00405382 0.0225038 0.0357704 0.0390178 0.030193 0.0109663 -0.0124258 
-0.0312942 -0.0374394 -0.0275523 -0.0055366 0.018302 0.0317723 0.027966 0.00919845 -0.0130502 -0.0254699 
-0.0209176 -0.00382185 0.0134109 0.018869 0.0102538 -0.00387948 -0.0115009 -0.0104446 -0.00108188 0.0065658 
0.00800117 0.00276445 -0.0026059 -0.00350618 -0.000826476 0.00124492 0.000735093 -0.000621847 -0.000480332 6.4589e-05 
-0.000275918 -0.000145048 3.84935e-05 0.000225831 -4.74151e-05 -2.78699e-05 0.000234476 -0.000148713 0.000213607 0.000791394 
0.0023909 0.00227292 0.00180387 0.000724237 0.000967713 0.00102449 0.000932352 0.00127399 0.00158715 -0.000623372 
-0.00167069 0.000977919 0.00206962 -0.00107169 -0.000915175 0.00167593 0.000708772 -0.000817038 0.000567142 4.51942e-05 
-0.000977868 0.000231896 0.000214962 -0.000210721 -9.20254e-06 -0.00099304 -0.00128116 -0.00107001 -0.00214137 -0.00226171 
-0.00276388 -0.00306084 -0.00280297 -0.00265832 -0.00140867 0.000164917 0.00273999 0.00639807 0.0107494 0.0163602 
0.0219941 0.0277835 0.0318832 0.0335485 0.0312207 0.024084 0.0123104 -0.00346133 -0.0204486 -0.0361065 
-0.0461472 -0.0480403 -0.0394324 -0.0213724 0.00306904 0.0276009 0.0451463 0.0490771 0.0368052 0.0112278 
-0.0186567 -0.04083 -0.0450283 -0.0287349 0.000692223 0.0280757 0.0388299 0.027207 0.00101526 -0.0231837 
-0.030173 -0.0169577 0.00592347 0.0215071 0.0193305 0.00251413 -0.0116171 -0.0152444 -0.00623615 0.00460461 
0.00925065 0.00523666 -0.00159978 -0.00447139 -0.0020281 0.00127386 0.00148053 -0.000462732 -0.000905869 6.06733e-05 
-0.000272406 -5.7462e-05 0.000349417 0.000107598 -0.00041357 0.000165047 0.00029541 0.000108109 0.00118947 0.00143089 
-0.000102516 -0.00435906 -0.00736714 -0.00729652 -0.00254501 0.0023285 0.00385144 0.000524535 -0.00348079 -0.00305795 
0.00190586 0.00313403 -0.00181505 -0.0029178 0.0014611 0.00102689 -0.00182343 -0.000178978 0.000681983 -0.00137009 
-0.000222787 0.000407732 -0.00081354 -0.000341395 -0.000576271 -0.00150112 -0.00120245 -0.00234867 -0.00309848 -0.0032591 
-0.00488091 -0.00629988 -0.00844928 -0.0104187 -0.0114071 -0.0118557 -0.0100419 -0.00685513 -0.00100522 0.00721809 
0.0174541 0.0293295 0.0404754 0.0498989 0.0543321 0.0527626 0.0433718 0.0266768 0.00431294 -0.0205371 
-0.0430715 -0.0586201 -0.0625555 -0.0527842 -0.0298394 0.00139593 0.0330066 0.0550541 0.0591547 0.042245 
0.00922381 -0.0271225 -0.0509144 -0.0503042 -0.0251672 0.011667 0.0397028 0.043083 0.0207689 -0.0121166 
-0.0335492 -0.0306865 -0.00759417 0.0174978 0.0272998 0.0139725 -0.00618985 -0.0179536 -0.0124364 0.00148983 
0.0109647 0.00917646 0.000782076 -0.00511447 -0.00400872 0.000494142 0.00234588 0.000310465 -0.0012888 -0.000136605 
-0.000106113 0.000146374 0.000380942 -0.00034708 -0.000288065 0.000650825 0.000137241 0.000311775 0.00136933 0.000332112 
-0.0017434 -0.00300589 -0.000580159 0.00412402 0.00826727 0.00680375 0.000995979 -0.00390118 -0.00178983 0.00337542 
0.00328867 -0.00273314 -0.00399444 0.00207568 0.00269965 -0.00191349 -0.000457008 0.0022955 -0.000493455 -0.00073648 
0.00125256 -0.000628036 -0.000511664 0.000350644 -0.00132118 -0.00164644 -0.00221413 -0.00395391 -0.00417016 -0.00652604 
-0.00958091 -0.0124926 -0.0163298 -0.0192044 -0.0223334 -0.0247646 -0.0260067 -0.0259046 -0.0220758 -0.0150144 
-0.00316646 0.0123051 0.0302875 0.0486512 0.0639321 0.0735881 0.0740854 0.0644996 0.0442757 0.0162808 
-0.0157168 -0.045412 -0.0667647 -0.0738626 -0.0637541 -0.0369021 0.000540809 0.0386044 0.0641279 0.067036 
0.0437691 0.00274434 -0.0390428 -0.0610032 -0.0517533 -0.0154389 0.0273252 0.0511722 0.0423908 0.00784935 
-0.0273773 -0.0398243 -0.0232461 0.00619782 0.0279985 0.0241323 0.00307861 -0.0168717 -0.0189051 -0.00517278 
0.00978174 0.0127992 0.00447977 -0.00462537 -0.00613915 -0.00126617 0.00272218 0.00167275 -0.00122185 -0.000511853 
0.000261063 0.000205746 0.000133447 -0.0005575 0.000239234 0.000602156 -0.000297102 0.000784979 0.00137696 -0.000342981 
-0.00162186 -0.00203572 -0.00168441 -0.00181312 -0.00284181 -0.00477484 -0.00486205 -0.00177197 0.00220175 0.000718902 
-0.00334827 -0.00243261 0.00363142 0.00371817 -0.00269035 -0.00175587 0.00287927 -8.64719e-05 -0.00265659 0.000771144 
-0.000298907 -0.001891 0.000464438 -0.00107985 -0.00245668 -0.00163558 -0.00339649 -0.00408908 -0.00533869 -0.00928815 
-0.0120109 -0.0166262 -0.0220641 -0.0281323 -0.0362892 -0.0439229 -0.0517123 -0.0565537 -0.0573564 -0.0529835 
-0.0412973 -0.0236358 0.000580994 0.0277504 0.0554633 0.0787028 0.093485 0.0962785 0.0851355 0.0610889 
0.0268784 -0.0116679 -0.048001 -0.0741877 -0.0840158 -0.072986 -0.0422076 0.00177825 0.0455538 0.0735953 
0.0728717 0.0415918 -0.00827255 -0.0530696 -0.069321 -0.0477435 -0.000132352 0.0438277 0.0572839 0.0320783 
-0.011763 -0.0417435 -0.0370652 -0.00749863 0.0240936 0.0315488 0.0139027 -0.0116599 -0.0223053 -0.012325 
0.00615956 0.0153438 0.0092254 -0.00253672 -0.0077324 -0.00390957 0.0018498 0.00298628 -0.000391882 -0.000852437 
0.000581138 -1.17116e-05 -0.000127098 -0.000379563 0.000575852 0.000103522 -0.0001946 0.00149368 0.000921551 -0.000821235 
-0.00147812 -0.00235572 -0.00229554 0.000104378 0.00385066 0.00631885 0.00588354 0.00363788 0.000730493 -0.0012555 
0.00133907 0.0039418 0.000832573 -0.00533157 -0.003171 0.00354863 0.000770679 -0.00369463 0.000496353 0.00186923 
-0.00205518 0.000558224 0.00115431 -0.00204602 -0.000360682 -0.000741542 -0.00272943 -0.00217041 -0.00528695 -0.00797676 
-0.0107837 -0.0171646 -0.0235359 -0.0334158 -0.0451304 -0.0579418 -0.0722951 -0.0843349 -0.0944645 -0.0981194 
-0.0940984 -0.0806215 -0.0564205 -0.0242309 0.0140712 0.0518484 0.0846274 0.105603 0.111995 0.101342 
0.0758467 0.0386612 -0.00377239 -0.0446344 -0.0752018 -0.0884002 -0.0780758 -0.0448955 0.00401849 0.052017 
0.0803821 0.073926 0.0335775 -0.0232491 -0.0658383 -0.0706665 -0.0335325 0.0215844 0.0591103 0.0544728 
0.0120809 -0.0346492 -0.0488245 -0.0254897 0.0145359 0.0357617 0.0254745 -0.00362937 -0.0234175 -0.0194579 
6.59353e-05 0.0154113 0.0136706 0.000844489 -0.00804996 -0.00622546 5.69922e-05 0.00333082 0.000737794 -0.00091949 
0.000690525 -0.000284598 -0.000119755 -0.000110273 0.00043183 -0.000304164 0.000471569 0.00176697 0.000297018 -0.000733465 
-0.00159036 -0.00307321 -0.00187335 0.00170363 0.00293827 -0.000465443 -0.00580901 -0.00686089 -0.00394061 -0.000180825 
0.000619838 -0.00358532 -0.00525093 0.000402565 0.00697097 0.00256699 -0.00394985 0.000517713 0.00392763 -0.00160637 
-0.00115893 0.00278755 -0.00138765 -0.000997797 0.00182582 -0.000818642 0.000532819 0.00124537 -0.00115536 -0.000260202 
-0.00357021 -0.00822406 -0.0141347 -0.0258777 -0.0392924 -0.0584869 -0.0801659 -0.103001 -0.125356 -0.141273 
-0.149954 -0.145036 -0.126694 -0.0938308 -0.0500345 -0.00100306 0.0468247 0.0851626 0.109819 0.11632 
0.106149 0.0803811 0.0446051 0.00217559 -0.0385929 -0.0719284 -0.0869333 -0.0782965 -0.0426258 0.00931387 
0.0599674 0.0845043 0.0693522 0.0180838 -0.0420141 -0.0762854 -0.0633464 -0.0108633 0.044289 0.0661306 
0.0393652 -0.0147545 -0.0501232 -0.0434683 -0.00220871 0.0333331 0.0359032 0.0079209 -0.020989 -0.0252163 
-0.00685656 0.0135948 0.0173259 0.00471691 -0.00794268 -0.00826469 -0.00161309 0.00306375 0.00155508 -0.000809971 
0.000589048 -0.000424797 -1.43759e-05 -7.05767e-05 0.000143813 -8.52579e-05 0.00122132 0.00144599 -7.87746e-05 -0.000670305 
-0.00236234 -0.00312002 -1.84461e-05 0.00299338 0.00179685 -0.00103223 -0.00090558 0.00366478 0.00580409 0.00402956 
0.000507657 0.000434536 0.00540429 0.0061097 -0.00156339 -0.0078212 -0.00125748 0.00408938 -0.0022838 -0.0040303 
0.00276565 0.000588521 -0.00207687 0.00387471 0.00312395 0.00297071 0.00855619 0.00856705 0.0117299 0.0158352 
0.0151421 0.0170547 0.013182 0.00450844 -0.00856504 -0.0311754 -0.0575177 -0.0914882 -0.126895 -0.16056 
-0.187686 -0.199771 -0.196013 -0.1707 -0.129282 -0.0745828 -0.0168586 0.0363352 0.0765363 0.100293 
0.106484 0.0974675 0.0769444 0.0468818 0.01085 -0.0285295 -0.0627135 -0.0821404 -0.0751527 -0.0392094 
0.0157792 0.0660607 0.0843172 0.0578307 -0.00266352 -0.0594762 -0.0779505 -0.0427325 0.0181331 0.0617687 
0.0586682 0.00959886 -0.0396194 -0.053486 -0.0208976 0.0238947 0.0414518 0.0206436 -0.0148297 -0.029569 
-0.0148241 0.00975783 0.0200443 0.00965111 -0.00697923 -0.0107923 -0.00350865 0.0028541 0.00221893 -0.000692241 
0.000347596 -0.000364809 -1.04905e-05 -0.000176906 8.33329e-05 0.00040197 0.00136872 0.000962706 0.000104106 -0.00076879 
-0.00278393 -0.00193123 0.0012114 0.00156741 -0.000746995 -0.00147204 -7.91503e-05 0.000980249 -0.00182073 -0.00351595 
-0.0030833 -0.00132647 -0.00267044 -0.00753886 -0.00643597 0.00308978 0.00814116 -0.000472548 -0.00382102 0.00467827 
0.00498544 -0.00105101 0.00484067 0.00828247 0.0056592 0.0134663 0.0191584 0.0227301 0.0348467 0.0425173 
0.0520609 0.0630044 0.0654832 0.0667567 0.0575526 0.0382605 0.00886484 -0.0348667 -0.0837901 -0.138272 
-0.186253 -0.221803 -0.237534 -0.227661 -0.195319 -0.14217 -0.0812911 -0.0198201 0.0284081 0.0618082 
0.0761991 0.0789444 0.0721092 0.0615825 0.0441221 0.0194569 -0.0147902 -0.0494284 -0.0730338 -0.0679834 
-0.0322292 0.0243714 0.0696381 0.0781818 0.0373955 -0.0264767 -0.0733053 -0.0669251 -0.0117849 0.0459385 
0.0681192 0.0324675 -0.0232637 -0.0550841 -0.0371688 0.0103679 0.0415321 0.0319095 -0.00493978 -0.0306093 
-0.0228094 0.00395354 0.0207602 0.0148276 -0.00422114 -0.0131999 -0.00635507 0.00251203 0.00311466 -0.000475728 
1.15639e-05 -0.000197028 -0.000171911 -0.000177272 0.000338679 0.000776693 0.00121553 0.00101295 0.000420757 -0.00136234 
-0.00279446 -0.000959373 0.000726691 0.000283652 0.000373107 0.00163449 0.00146342 -2.77215e-05 -0.00155898 9.78247e-05 
0.000982002 0.00125594 0.00172434 0.0052563 0.00995593 0.00675518 -0.00414685 -0.007067 0.00347923 0.00507868 
-0.00330088 0.00112495 0.00957296 0.00663479 0.0128964 0.0256742 0.0309105 0.046674 0.0661808 0.0823502 
0.108158 0.12938 0.147901 0.164603 0.165273 0.15623 0.12642 0.0791632 0.0174278 -0.0574264 
-0.129563 -0.195299 -0.237295 -0.252447 -0.234952 -0.18985 -0.128188 -0.0622549 -0.00856187 0.0276869 
0.0412402 0.0430911 0.0379235 0.0386025 0.0405198 0.0420908 0.028581 0.00114199 -0.0371913 -0.062886 
-0.060827 -0.0221958 0.0318706 0.0702638 0.063749 0.0128868 -0.0475558 -0.0751113 -0.0405779 0.0200268 
0.0650069 0.0518385 -0.0028741 -0.0491951 -0.0489774 -0.00528054 0.0370073 0.0399846 0.00642779 -0.0278463 
-0.0296474 -0.00315339 0.0194807 0.0189489 -1.33155e-07 -0.0142187 -0.00990484 0.00137753 0.00420146 6.9701e-05 
-0.000497069 6.36933e-05 -0.000412424 7.68394e-05 0.000579915 0.000786122 0.00112529 0.00142006 0.000236639 -0.00200413 
-0.00214916 -0.000435011 0.000257701 0.000929311 0.0016625 4.49637e-05 -0.00293123 -0.00281515 -2.9072e-05 0.00293368 
0.00229964 0.00150231 0.00049543 -0.00199944 -0.00747505 -0.0116041 -0.00600628 0.00595638 0.00701613 -0.0028955 
0.000821524 0.0130071 0.011128 0.0131364 0.0302063 0.0393991 0.0530506 0.0818903 0.10594 0.140085 
0.182614 0.219542 0.262833 0.296283 0.315668 0.321053 0.29641 0.250854 0.175697 0.0822835 
-0.0190024 -0.117927 -0.192361 -0.237602 -0.239011 -0.206343 -0.144129 -0.0753813 -0.0148367 0.0208923 
0.0290842 0.0167373 -0.0019568 -0.00982457 -0.00115159 0.0215829 0.0406179 0.0409974 0.0151325 -0.0249651 
-0.0538771 -0.050469 -0.0103445 0.0381481 0.0637909 0.0403348 -0.01189 -0.0609519 -0.0562772 -0.00758316 
0.0478294 0.0606151 0.0181446 -0.0366171 -0.054148 -0.0211606 0.0277343 0.0440956 0.0173442 -0.0215527 
-0.0336523 -0.0105249 0.0168265 0.0214725 0.00414561 -0.0136574 -0.0130042 -0.000532687 0.00505281 0.00102444 
-0.0011361 0.000371265 -0.000625939 0.000474409 0.000586529 0.000693802 0.0014032 0.00171403 -0.000458568 -0.00210011 
-0.00129134 -0.000582442 0.000165638 0.00156512 0.000701871 -0.00198881 -0.00138383 0.00304926 0.0044034 0.000886372 
-0.00420749 -0.00547339 -0.00449581 -0.00217262 0.00268139 0.0100102 0.0136862 0.00655739 -0.00391182 0.000206303 
0.0134283 0.0117971 0.00898554 0.0265371 0.0406943 0.050441 0.0816982 0.11582 0.151721 0.209157 
0.265234 0.327304 0.396153 0.449395 0.495874 0.516233 0.504412 0.461351 0.375233 0.265146 
0.131274 -0.000918309 -0.115107 -0.194121 -0.221841 -0.2044 -0.143072 -0.0681163 0.00620961 0.048898 
0.0584973 0.030536 -0.0101118 -0.0467719 -0.0541161 -0.0331435 0.0095005 0.0430319 0.0519272 0.0233163 
-0.0177567 -0.0485864 -0.0382192 0.000221561 0.0420162 0.0467504 0.0145783 -0.0355018 -0.0550371 -0.0255249 
0.0265544 0.0564706 0.0337001 -0.0204808 -0.0516249 -0.0325995 0.0158345 0.0437436 0.0257661 -0.014311 
-0.0350038 -0.0172459 0.0137313 0.0235534 0.00773983 -0.0126542 -0.0154098 -0.00258888 0.00559294 0.00234949 
-0.00194044 0.000732596 -0.00075434 0.000826743 0.000339861 0.000766689 0.00189263 0.00158256 -0.00107523 -0.00147459 
-0.000850085 -0.00099043 0.000775219 0.00176371 -0.000533442 -0.00162301 0.00110496 0.00211492 -0.00235851 -0.0051785 
-0.00190583 0.00480974 0.0085696 0.00796679 0.00450933 -0.00232645 -0.0102765 -0.0118541 -0.000975282 0.0110874 
0.00849446 0.00382587 0.0205962 0.0392696 0.0463122 0.0733795 0.11471 0.15036 0.208836 0.281445 
0.353105 0.445327 0.533296 0.612893 0.685256 0.719661 0.724441 0.680184 0.58801 0.458833 
0.293133 0.126793 -0.0311547 -0.145237 -0.206405 -0.205525 -0.150588 -0.0657545 0.0264042 0.0894888 
0.113818 0.0855594 0.0291965 -0.0395718 -0.0811649 -0.0874895 -0.0483834 0.00504614 0.0515338 0.0576706 
0.0293217 -0.0166228 -0.0411427 -0.0272236 0.0113783 0.0375762 0.0276882 -0.0112903 -0.0435717 -0.0343378 
0.00886555 0.0448169 0.040374 -0.00521608 -0.0448911 -0.0388079 0.00452856 0.040256 0.0322076 -0.0066624 
-0.0344416 -0.0235363 0.00945286 0.0253945 0.0118001 -0.0111962 -0.0175368 -0.00468942 0.00593446 0.00406184 
-0.0029146 0.00114454 -0.000841972 0.000999542 5.62659e-05 0.00111842 0.00219791 0.000982118 -0.00127419 -0.000708145 
-0.00110891 -0.00109509 0.00145389 0.000854078 -0.00141238 -0.000258058 0.00163909 -0.000398762 -0.00235758 0.00169396 
0.00543631 0.00261138 -0.00497146 -0.0107998 -0.0104745 -0.00543674 0.00411311 0.0137772 0.0162372 0.00776524 
0.00454425 0.0202589 0.0384888 0.0420498 0.0605495 0.102127 0.137451 0.186377 0.265205 0.342766 
0.438866 0.552938 0.65622 0.765037 0.852151 0.902987 0.92052 0.873692 0.779375 0.628207 
0.438828 0.23798 0.0412847 -0.108516 -0.206405 -0.226199 -0.18626 -0.0943253 0.0116483 0.10459 
0.155096 0.151046 0.0987251 0.0177092 -0.058077 -0.10268 -0.0980297 -0.0520732 0.00963521 0.0550627 
0.058194 0.0272166 -0.0184117 -0.0354682 -0.0182643 0.0141377 0.0275462 0.00741476 -0.0236532 -0.0333386 
-0.00399654 0.0312269 0.0386089 0.00695201 -0.0348453 -0.0405821 -0.00484573 0.034211 0.0355846 0.000966852 
-0.0313935 -0.0281368 0.00400982 0.0256942 0.0159135 -0.00873638 -0.019025 -0.0068177 0.00598358 0.00618078 