# vtk DataFile Version 2.0
Titre
ASCII
DATASET STRUCTURED_POINTS
DIMENSIONS 100 100 1
ORIGIN 0.0 0.0 0.0
SPACING 0.1 0.1 0.0
POINT_DATA 10000 
SCALARS rho float
LOOKUP_TABLE default
0.00257546 -5.89716e-05 0.000406379 -0.00123775 -0.00156399 -0.00189932 -0.00105626 -0.000316728 0.00114717 0.00132444 
0.0011807 1.96273e-05 -0.000855526 -0.00103587 -0.000550216 0.000106772 8.85457e-05 6.29693e-05 -0.000112482 3.03958e-05 
-9.48339e-05 0.000121177 0.000171292 -3.05857e-05 -0.000226726 0.000108015 0.000335823 -0.0001969 -0.000133121 0.000223573 
8.56286e-05 -0.000322686 0.0002108 0.000150122 -0.000270743 9.19497e-05 0.000124391 -0.000210008 4.71201e-05 0.000143004 
-0.000194411 0.000114423 2.93268e-05 -0.000129873 0.000107988 -4.40405e-05 -3.82637e-05 8.50195e-05 -5.50689e-05 3.12964e-05 
3.79082e-05 -6.41952e-05 7.00421e-05 -6.75744e-05 2.15252e-05 6.7824e-06 -4.21499e-05 5.69994e-05 -6.66629e-05 1.98409e-05 
-5.80431e-05 -5.62572e-05 -7.04996e-05 -0.000118763 -0.000123527 -0.000158639 -0.000146315 -0.000123135 -5.89961e-05 3.26342e-05 
0.000161076 0.000330458 0.000527182 0.000727686 0.000874844 0.000915329 0.000798142 0.000521638 0.000112199 -0.000323093 
-0.000682188 -0.000820083 -0.000703342 -0.000342024 9.94336e-05 0.000456271 0.000594378 0.000531526 0.000426839 0.000433977 
0.000473301 0.000361815 -0.000299183 -0.00122348 -0.00159085 -0.000638807 0.000595257 0.00230378 0.000985307 0.00230057 
7.81168e-05 -0.00147522 -0.000325 -0.00101303 9.99664e-05 0.000547686 0.00144073 0.0015448 0.00144859 6.98655e-05 
-0.000823923 -0.00166768 -0.000883323 5.79815e-05 0.000806267 0.00030831 -0.000133028 -0.000300233 9.28605e-05 -3.99919e-05 
0.000206048 0.00014202 6.86882e-05 -0.000489914 0.000214606 0.000415189 -0.00016425 -0.00051256 0.000486915 0.000246185 
-0.0006199 0.00016261 0.00046619 -0.00045131 -0.000140849 0.000568412 -0.000427209 -5.31038e-05 0.000429127 -0.00034035 
5.72067e-06 0.0002327 -0.000267826 4.41292e-05 0.000182465 -0.000248277 0.000196982 -3.01934e-06 -0.000137439 0.0001835 
-0.000173991 3.52547e-05 2.41511e-05 -0.00010641 0.000115444 -7.10896e-05 7.19079e-05 1.11619e-05 3.03433e-05 7.23521e-05 
2.72093e-05 0.000139413 6.20169e-05 0.000186948 0.000127032 0.000180336 0.000143435 0.000108877 3.87234e-05 -4.96618e-05 
-0.000167054 -0.000254159 -0.000329551 -0.000299136 -0.000196071 4.33838e-05 0.000322081 0.000626605 0.000800144 0.000810748 
0.000577732 0.000194892 -0.000232462 -0.00051891 -0.000564326 -0.000382893 -0.000115271 5.82788e-05 9.25718e-05 0.000133468 
0.000389361 0.000826881 0.00124028 0.000720672 -0.000952659 -0.00113742 -0.00245083 0.000845571 -0.000399029 -0.000470331 
-0.00047057 0.000400783 -0.00106624 -0.000972853 -0.00201119 -0.00162823 -0.00198998 -0.000835329 -0.000618354 8.54878e-05 
0.00022812 0.000415094 0.000529514 0.000198856 -0.000311037 -0.000559397 -8.52606e-05 0.000370052 0.000248083 -8.85487e-05 
-4.43073e-06 1.58617e-05 -0.000236774 6.22029e-05 0.000419434 -0.000112464 -0.000619912 0.00048256 0.000384139 -0.000603015 
-0.000176855 0.000865582 -0.000485317 -0.000452142 0.000813071 -0.000267062 -0.000465939 0.000666577 -0.000189084 -0.000452423 
0.000587983 -0.000320685 -0.000153609 0.000451013 -0.000326817 8.08484e-05 0.00021234 -0.000305796 0.000197026 -9.9407e-06 
-0.000170999 0.000290535 -0.000212468 0.000178132 3.10697e-05 -0.000108183 0.000185991 -0.000230797 9.33865e-05 -0.000160606 
-0.000106726 -0.000113656 -0.000234548 -0.000179276 -0.00028362 -0.000231898 -0.000268703 -0.000153914 -0.000107873 8.83363e-05 
0.000224278 0.000438738 0.000576171 0.000691919 0.000687057 0.000604654 0.000408981 0.000167333 -9.58518e-05 -0.000323232 
-0.000470942 -0.000533246 -0.000468337 -0.000315258 -5.42107e-05 0.000215175 0.00043521 0.000471887 0.000310571 7.08947e-05 
-5.63799e-05 -0.000132691 2.86185e-06 0.000423377 -0.000967526 0.00047888 -0.000934511 0.00176994 0.0022535 0.00170022 
0.00125751 0.000482967 0.00103228 -0.000168911 0.000798144 0.000101182 0.001286 0.00130325 0.000993011 0.000220086 
-0.00111146 -0.0012618 -0.00114222 -7.13009e-05 0.000300247 0.00082675 0.0003301 5.13544e-06 -0.000632023 -6.59539e-05 
0.000172157 0.000256854 -0.000204017 0.000142244 -5.90676e-05 -0.000245547 0.000169124 0.000401285 -0.000449906 -0.00026597 
0.000760201 -0.00021876 -0.000673802 0.000674195 0.000180789 -0.000890502 0.000691258 0.000155052 -0.000801707 0.000651875 
-4.89328e-06 -0.000448868 0.000542037 -8.18105e-05 -0.000326147 0.000444735 -0.000329973 -7.8566e-05 0.000265634 -0.00038979 
0.000210231 -5.05085e-05 -0.000197983 0.000188898 -0.000291988 8.15821e-05 -0.000103045 -4.01369e-05 0.000103126 -2.85153e-05 
0.00026874 6.33648e-05 0.0003769 0.00021224 0.000386057 0.000319174 0.000294615 0.00023025 7.0476e-05 -7.24218e-05 
-0.000272063 -0.000414319 -0.000510981 -0.000486797 -0.000336635 -8.01187e-05 0.000266605 0.000562922 0.000789015 0.000773907 
0.000581559 0.000157404 -0.000298502 -0.000692743 -0.000825259 -0.000653668 -0.000239323 0.000224652 0.000427421 0.000317323 
0.000275244 0.000260661 9.03093e-05 0.00145574 -0.00117975 -6.99749e-05 -0.0025535 -0.000764527 -5.20549e-06 0.000600816 
-0.00165477 0.000138096 -0.00307016 -0.00219404 -0.0036207 -0.00299739 -0.00203708 -0.0013709 -0.000535918 -0.000271942 
0.000220404 0.000935405 0.00136798 0.000934692 1.25274e-05 -0.000855568 -0.000671481 -0.00031916 0.000454665 0.000444772 
0.00027655 -0.000491601 -0.00022542 0.000130717 0.000285105 -0.000125288 2.85092e-05 -0.000169754 1.70825e-05 0.000267127 
-5.20366e-05 -0.000492892 0.000394559 0.000359134 -0.000790202 0.00041158 0.000456802 -0.000821201 0.000326368 0.000456073 
-0.000780724 0.00045777 0.000128213 -0.000629263 0.00043952 -0.000146867 -0.000277905 0.00042815 -0.000178098 1.82962e-05 
0.000404593 -0.000300875 0.000402468 4.29316e-06 -7.15853e-06 0.000398784 -0.00021676 0.000392525 -0.000136564 4.75829e-05 
-5.96393e-05 -0.000302685 -0.000160636 -0.000494247 -0.000300834 -0.000526501 -0.00027857 -0.00034636 -2.84398e-05 5.37291e-05 
0.000363734 0.000471718 0.000642057 0.00059548 0.000538944 0.0003009 0.00010668 -0.000140775 -0.000253323 -0.000313689 
-0.000260974 -0.000174451 -0.00010543 -4.95074e-05 -6.88889e-05 -6.93005e-05 -8.4839e-05 3.98596e-05 0.00021255 0.000125808 
0.000168679 0.000514099 -0.00104311 0.00149648 -0.00105405 0.000975979 -0.00034212 0.000364134 0.00174502 0.000986901 
0.00256602 0.001579 0.000609552 0.000870967 0.000279277 0.00112806 0.00178783 0.00152032 0.00115001 -0.000176923 
-0.000967011 -0.00122909 -0.00131163 -0.000969358 -0.00040826 0.000566159 0.00110211 0.000560961 -0.000148081 -0.000593986 
-0.000297201 -5.61862e-05 0.000399069 0.000375306 -0.000305429 -0.000363954 7.57327e-05 0.000474168 -0.00016986 -0.000272162 
2.37004e-07 0.000348859 -3.32063e-05 -0.000374679 0.00019359 0.000402918 -0.000694134 6.76875e-05 0.000681337 -0.000863152 
0.000375092 0.000368839 -0.000657516 0.000445166 0.000184229 -0.000374286 0.000539566 -9.81506e-05 -0.000156466 0.000283615 
-0.000375454 -6.93766e-05 -6.64467e-05 -0.000455178 3.18466e-05 -0.000394207 -0.000172492 -0.000118875 -0.000329142 0.00014273 
-0.000226063 0.000348227 0.000106136 0.000460719 0.000446455 0.000441862 0.000513667 0.000236184 0.00021905 -0.000164613 
-0.000246683 -0.000548491 -0.000525274 -0.000573581 -0.000344849 -0.000137013 0.00017449 0.000411413 0.000532588 0.000530757 
0.000302765 2.03409e-05 -0.00038682 -0.000642629 -0.000729653 -0.000502923 -0.000146729 0.000173431 0.000535849 0.000203507 
-0.000579783 0.00107816 -0.00146709 0.00202128 -0.000498509 -2.84545e-05 -0.000983416 -0.00151318 -5.348e-05 0.00185289 
-0.000389961 -0.00248772 -0.00253159 -0.00327295 -0.00307182 -0.00219567 -0.001063 -0.000714341 1.79907e-05 -4.41662e-05 
0.000712821 0.00156405 0.00158885 0.00165997 0.000363397 -1.54144e-05 -0.00131945 -0.000970694 -0.000487452 0.000935547 
0.000578232 8.32884e-05 -0.000407292 -0.000164945 -0.00022971 0.000321497 0.0003855 -0.00021152 -0.000595569 0.000339388 
0.00055747 -0.000580621 -0.000188292 0.000411798 0.000179858 -0.000666451 0.000264384 0.000617347 -0.00065546 7.67145e-05 
0.000748769 -0.000934819 0.000262614 0.000413671 -0.000875185 0.000474552 -0.000162379 -0.000527193 0.000317903 -0.000271754 
-0.000153552 0.000447193 -0.000177988 0.000430959 0.000411193 6.77508e-05 0.000733999 8.78176e-06 0.000474248 0.00017552 
-3.44087e-05 0.000156242 -0.000454365 -0.0001118 -0.000677991 -0.000332 -0.000628851 -0.000253296 -0.000257165 0.000117892 
0.0002548 0.000506405 0.000536525 0.000560536 0.000363805 0.000223471 -6.32323e-05 -0.000145308 -0.000281602 -0.000165515 
-9.56328e-05 7.7845e-05 0.000128692 2.28321e-05 -0.000199468 -0.000432116 -0.000446038 -0.000503782 0.000224874 0.00117765 
-0.000798024 0.00201239 -0.00219532 0.000467456 -0.000221682 0.000187265 0.000779396 0.000202966 0.000290327 -0.000327022 
-1.43412e-05 0.000496349 0.00017701 0.000162552 0.000459581 0.000918586 0.0014202 0.000405606 0.000333595 -0.00158265 
-0.000979823 -0.0020121 -0.00136303 -0.00185648 -0.00082211 -4.26539e-05 0.00108047 0.00127289 0.00101215 -0.000223138 
-0.001117 -0.000863409 0.000592999 0.000552715 0.000161359 -0.000420769 -2.22636e-05 -0.0002953 0.000357173 0.000405337 
-0.000498063 -0.000393788 0.00083931 -4.15604e-05 -0.000740958 0.00042987 0.000472605 -0.00063395 -0.000310143 0.000947301 
-0.000999396 -0.000130789 0.00101214 -0.0009787 0.000415648 0.000719631 -0.000865446 0.000996663 1.17232e-05 -0.000162109 
0.000766405 -0.000413857 0.000139393 -3.31258e-05 -0.000590609 -0.000126372 -0.000603932 -0.000511775 -0.000250474 -0.000584666 
6.44893e-05 -0.000225237 0.000275091 0.000322886 0.000383565 0.000686962 0.00031422 0.000606296 -1.03335e-05 0.000157103 
-0.00045526 -0.00028732 -0.00067174 -0.000358051 -0.000449853 -4.4195e-05 6.26164e-06 0.000282731 0.0002751 0.000261374 
0.000129259 -0.000107487 -0.000197503 -0.00032494 -0.000300948 -0.000234771 0.000213828 -8.52855e-05 -0.000697767 0.00147023 
-0.00226554 0.00211922 -0.000619798 0.000485573 0.000634771 -0.000563119 -0.00039293 -0.00058672 0.000426171 0.00170807 
0.00172713 -0.000605339 0.000601327 -0.00111897 -8.47377e-05 0.0002727 0.00084109 0.00119744 0.00121127 0.0012363 
0.0021144 0.00192012 0.00245312 0.00135795 0.00144479 -8.04829e-05 -0.000705934 -0.00193337 -0.00110436 -0.000380003 
0.000890084 0.00114941 0.00050871 -0.000891275 -0.000817073 0.000240855 0.00072387 -2.9947e-05 -0.000312291 -3.39345e-05 
-0.00024688 0.000677545 -0.000213658 -0.000638305 0.000362565 0.000528686 -0.000782719 -2.52406e-05 0.000785963 -0.0003662 
-0.000407511 0.00133017 -0.000573943 -0.000338706 0.00111133 -0.00122387 8.24115e-05 0.000309982 -0.00122482 0.000393682 
-0.000430633 -0.000640788 0.000478843 -0.000558136 0.00037769 0.00038258 0.000128142 0.000888338 0.000237573 0.000577925 
0.000360883 -7.74482e-05 0.000147485 -0.000584742 -0.000250972 -0.000737267 -0.000436336 -0.000477324 -0.000221838 5.97359e-05 
0.000201804 0.000501569 0.000443042 0.000520387 0.00031064 0.000172844 1.72093e-05 -0.000161425 -9.40837e-05 -0.000169618 
5.95364e-05 3.02233e-06 6.17315e-05 -1.15095e-05 -0.000254524 -0.000799997 -0.000394692 0.0004456 -0.00149844 0.00323999 
-0.00148633 0.00103698 -0.000457042 -0.00133684 0.000271288 0.000189799 0.000566708 0.000339122 -0.000184017 0.000117231 
-0.000967154 -0.0013589 -0.000892211 -0.00280353 -0.000951195 -0.00183039 -0.00109416 -0.00160038 -0.00269289 -0.00225793 
-0.0030337 -0.00195619 -0.00255668 -0.00155573 -0.0013516 -6.84712e-05 0.000565596 0.00185112 0.00194015 0.00103705 
-0.00102151 -0.00126333 -0.00106037 0.00056982 0.000749705 0.000765416 -0.000702786 -0.000758004 0.000260788 0.000648935 
-0.000200436 -0.000243402 -0.000273282 0.000498603 0.000403544 -0.000846576 0.000384518 0.000494924 -0.000419221 -0.000392972 
0.000671901 -0.000417469 -0.000986546 0.000858523 -0.000655075 -0.000633833 0.00148949 -0.000993962 0.00080597 0.000891412 
-0.000600815 0.00139854 -0.000192987 0.000145613 0.000542527 -0.000741149 0.000198173 -0.000684782 -0.000533375 -0.000322977 
-0.000655333 1.73218e-05 -0.000104242 0.000290513 0.00057767 0.000390753 0.000845186 0.000189634 0.000559088 -0.00025744 
4.77263e-05 -0.000637237 -0.000226258 -0.000663421 -0.000109056 -0.000390443 0.000152214 -0.000106844 0.000222517 -9.2497e-06 
8.93511e-05 7.56297e-06 -0.000191642 -5.94173e-05 0.00031312 -0.000231607 -0.00076237 0.00169573 -0.00327667 0.00189826 
-0.000828617 8.09328e-05 0.00148097 -0.000318495 6.63599e-05 -0.000305563 -0.000437665 7.25098e-05 0.000819449 0.000768214 
0.000988982 0.00169071 0.00184406 0.000893877 0.00327298 0.0017848 0.00434419 0.00241738 0.00350497 0.00278673 
0.00302529 0.00292003 0.0019885 0.00176834 0.000803075 0.000226925 -0.00108173 -0.00172192 -0.00213297 -0.00173159 
-3.74688e-05 0.00184487 0.00180648 8.76206e-05 -0.00139004 -0.000745536 0.000206959 0.00060958 0.000707194 -0.000825362 
-0.000335051 0.000274193 0.000603377 -0.000268487 -0.000596012 0.000162154 0.000690027 -0.0010511 -2.95274e-05 0.000746257 
-0.000436299 -0.000358416 0.00111743 4.10209e-08 -0.000269607 0.00139018 -0.000450732 -0.000394029 0.000805513 -0.00147956 
-6.36575e-05 -0.000175733 -0.00143728 0.000629138 -0.000933906 0.000123447 0.000477628 -0.000288744 0.00112444 -3.135e-05 
0.000746359 0.00021155 -1.2888e-05 -5.25999e-05 -0.000556232 -0.000498106 -0.0005999 -0.000617007 -0.000165868 -0.000340576 
0.000401659 -8.16982e-06 0.00068197 9.01754e-05 0.000557784 1.35775e-05 0.000248392 -1.36474e-06 -5.79638e-06 2.42665e-05 
-0.000149124 0.000221119 -7.27313e-05 -0.000499306 0.000148753 0.000271873 -0.00245222 0.00306765 -0.00199471 0.00121957 
0.00124673 -0.00112554 0.000379446 -0.000643589 -0.000350694 0.000283211 0.000253874 7.28222e-06 0.00011447 0.00117078 
0.00111727 0.000513808 -0.00141601 -0.00148666 -0.00229102 -0.00246005 -0.00218588 -0.00368044 -0.00300172 -0.00377934 
-0.00261749 -0.00252902 -0.00168642 -0.00122534 -0.000195789 4.90431e-05 0.00122997 0.00187893 0.00292728 0.00167565 
0.000831175 -0.00163594 -0.00201515 -0.00164332 0.00112525 0.0019064 0.000244953 -0.00115242 -0.000468292 1.71771e-05 
0.00086137 4.60354e-08 -0.000665339 -9.84023e-05 0.000232211 0.000657761 -0.000799955 8.55843e-06 0.00126618 -0.000653603 
-0.000321845 0.000949107 -0.000444951 -0.000897637 0.000526222 -0.000611881 -0.00140347 0.00107462 -0.00100225 4.32658e-05 
0.00142523 -0.000687376 0.00142037 0.000547613 -0.000250652 0.00121442 -0.000943484 0.000328427 -0.000532508 -0.000729418 
1.22813e-06 -0.000893301 0.000348171 -0.000267013 0.000572027 0.000428084 0.000593999 0.000609887 0.000319632 0.00029752 
-9.87398e-05 -6.04768e-05 -0.000388722 -0.00013198 -0.000481265 1.56278e-05 -0.000494949 0.000193648 -0.00031401 0.000305142 
-0.000274405 0.000141606 0.000556186 -0.000562807 -0.00045929 0.0023356 -0.00347163 0.00195861 -0.000828632 -0.00171485 
0.00158745 -0.000325094 0.000736889 0.000477379 -0.000378607 -0.000425118 -0.000237321 0.000100993 0.000458584 0.000752011 
0.00110368 -0.000607769 -0.000406164 -0.000243266 6.37733e-05 0.00193405 0.00152574 0.00249256 0.00172025 0.0024551 
0.00152454 0.00183383 0.000239206 0.000439069 -0.00079059 -0.000954668 -0.00183991 -0.00196038 -0.00285936 -0.00271024 
-0.00119416 0.00124335 0.00284856 0.00189439 -8.06901e-06 -0.0017645 -0.00196936 0.000993922 0.00131697 0.000257099 
-0.00095803 -0.000406852 0.000420696 0.000764237 -0.000542972 -0.000104443 -0.000113415 0.000649324 -0.000579191 -0.000900219 
0.000860129 -0.000336626 -0.00103987 0.00126697 -5.41885e-06 -0.000482725 0.00170264 0.000165791 -0.000209024 0.00153613 
-0.00109748 -0.000164376 0.00016959 -0.00179208 0.000445317 -0.000808164 -0.000449481 0.0010147 -0.000765156 0.00155576 
-0.000251468 0.000832095 0.000132289 -0.000136804 -6.87278e-05 -0.000665362 -0.000456523 -0.000564145 -0.0005842 -3.20232e-05 
-0.000478328 0.000517367 -0.000390599 0.00081611 -0.000339389 0.000864925 -0.000255279 0.000493562 -0.000173748 0.000195046 
-8.72419e-05 -0.000882317 0.000813635 0.000251513 -0.00257516 0.00335768 -0.00230054 -0.000237528 0.00224875 -0.00163904 
0.00119361 8.35239e-05 -0.000401251 3.63321e-06 -0.00013547 -4.38543e-05 4.40738e-05 -8.97855e-05 9.39592e-05 0.00087753 
0.000762245 0.000270121 0.0010143 0.000158867 0.00136383 0.000819016 0.000925324 1.88377e-05 -0.000138708 -7.88715e-05 
4.81407e-05 0.000898631 0.000643945 0.00205975 0.0014716 0.00236825 0.0019127 0.00320819 0.00250241 0.00309777 
0.00123653 -0.000180457 -0.00316476 -0.00342066 -0.00068098 0.00197611 0.00209572 0.000705458 -0.00191874 -0.00101289 
0.000666278 0.000899836 0.000144351 -0.00107066 -0.000117947 0.000693007 -0.000100805 -0.000426582 -0.000209866 0.00107682 
-7.8543e-05 -0.000348507 0.00111271 9.86613e-05 -0.00085581 0.000550013 -0.0001442 -0.00182749 0.000808824 -0.0011923 
-0.000921225 0.00129322 -0.00105959 0.00109169 0.000861739 -0.000418503 0.00134802 -0.000695586 -0.000149117 -3.15401e-06 
-0.00151769 0.000667996 -0.00155037 0.00103652 -0.000723355 0.00116633 -2.90824e-05 0.0010659 4.862e-05 0.000782429 
-0.000256076 0.000468702 -0.000497642 0.000121663 -0.0005056 -0.000260174 -8.3914e-05 -0.000518174 0.000182682 -0.000266867 
0.00132674 -0.00109152 -2.03119e-05 0.00259801 -0.00359308 0.00181418 0.00106716 -0.0031158 0.00209424 -0.0012759 
-0.000252532 0.000777693 0.00032516 0.000310414 -7.58548e-05 -0.000428664 -0.000266008 5.29752e-05 0.000232372 0.00054047 
0.0007848 0.00121758 -0.00135057 -0.000451285 -0.00225744 -0.00139484 -0.00221803 -0.00271476 -0.00218533 -0.0032932 
-0.00202499 -0.00367705 -0.00269469 -0.00381719 -0.00304601 -0.00374091 -0.00264695 -0.00297364 -0.0029472 -0.00295686 
-0.00186322 0.000796943 0.00277175 0.00370558 0.00287491 -0.00175561 -0.00301894 -0.00176082 0.00139768 0.0020264 
0.000136368 -0.00164487 -4.67713e-05 0.000232348 0.00099093 -0.0003938 -0.000639293 0.000582783 0.000510294 -0.00039904 
-0.000729225 0.000485171 -0.000310973 -0.00141139 0.000748231 -2.13252e-05 -0.000797457 0.00121657 0.000683539 -0.000662559 
0.00221679 -0.000668213 5.24615e-05 0.000836655 -0.00177263 0.000562405 -0.0006664 -0.00065362 0.0011083 -0.00065296 
0.00135014 0.000293891 0.000232464 0.000827983 -0.00101143 0.000649665 -0.00153431 0.000304946 -0.00123346 0.000111264 
-0.000495265 -5.29948e-05 0.000342069 -0.000265769 0.00101429 -0.000609961 0.00133671 -0.000450641 0.00055253 -0.00140733 
0.00113231 -0.000135927 -0.00287667 0.00359564 -0.00117625 -0.00235493 0.00385952 -0.00297372 0.000906156 0.000708446 
-0.000404366 0.000304947 6.28832e-05 -8.67147e-05 3.6398e-05 -2.3677e-05 -0.000120337 -0.000170606 3.4167e-05 0.000825145 
0.00251145 -0.00067358 -0.000884212 0.000408574 -0.000990024 0.00325928 0.000992828 0.00426503 0.00297027 0.00450104 
0.00486933 0.00442076 0.00570747 0.00429556 0.00520004 0.00311251 0.00414872 0.0023598 0.00312261 0.00187099 
0.00180825 -0.000163419 -0.00345038 -0.00472863 -0.00303416 -0.000261354 0.00391928 0.00294428 -0.000184181 -0.00256178 
-0.00155087 0.00141749 0.0014844 -0.00072505 -0.000704747 -0.000197356 0.000676803 -5.47567e-05 -0.000514344 -0.000525762 
0.00087337 3.46518e-05 -0.000632499 0.00148101 0.000368229 -0.000424202 0.000795875 0.000167553 -0.0013225 0.00041155 
-0.00038467 -0.0018161 0.00157013 -0.00166421 0.000820717 0.000688977 -0.000593249 0.00120671 -0.000513795 -0.000446051 
0.000312702 -0.00184171 0.000884598 -0.00167496 0.00114186 -0.000669226 0.00120354 -6.60768e-05 0.00112789 -0.000266393 
0.00104647 -0.000905466 0.000979065 -0.00133108 0.000845017 -0.00139326 -7.06941e-05 -8.17968e-05 0.000584905 -0.000756082 
-6.06458e-05 0.0032882 -0.00331553 7.1139e-05 0.00379665 -0.00525693 0.00340722 -0.000503754 -0.00104996 0.000474606 
-0.000340571 2.6388e-06 0.000526177 0.000317652 -2.17066e-05 -0.000284196 -0.000243986 -2.83559e-05 -4.28389e-05 0.000345104 
0.000270072 -0.00238711 0.000802538 -0.00105517 0.000669345 0.00079228 -0.00137427 -0.000488878 -0.00396361 -0.00265625 
-0.0051759 -0.00453212 -0.00521288 -0.00484807 -0.00449831 -0.00383077 -0.00252935 -0.00209676 -0.00160393 -0.00180697 
-0.000662282 0.00130594 0.00247727 0.00590708 0.00428505 0.00100711 -0.00351976 -0.00453655 -0.00141779 0.00294397 
0.00214889 0.000151118 -0.00234022 -0.000457318 0.00132865 0.000436383 -0.00038151 -0.000689966 0.000789227 0.000346526 
-2.63707e-06 -0.0003757 0.000215144 0.000407673 -0.00197314 0.000646117 -0.000473054 -0.00104553 0.000724506 0.000497588 
-0.000721483 0.00157595 6.72063e-05 -0.000788337 0.00191252 -0.00237942 0.00137475 -0.00106985 -5.9685e-05 0.000580416 
1.56525e-05 0.00052895 0.00116395 -0.000820608 0.00188917 -0.0022052 0.00191117 -0.00278569 0.00177558 -0.00247272 
0.00168296 -0.00162964 0.00119081 -0.0005725 0.000621706 0.00117559 -0.00103403 0.00069878 0.000478718 0.000172799 
-0.00313978 0.00220298 0.00172734 -0.00605251 0.00699415 -0.00367858 -0.000148168 0.00117451 -0.000886234 0.000250156 
0.000458242 -7.50514e-05 -1.77367e-05 7.79261e-05 9.24356e-05 2.21166e-05 -0.000150018 -0.000158104 5.83923e-07 -0.000135869 
-0.000992272 0.00175273 0.000566861 -0.000119107 0.000619153 -0.00134898 -0.000194482 -0.00119261 -9.53237e-06 0.00083265 
0.00144038 0.0025095 0.00275597 0.00288513 0.00202544 0.00174311 0.000601451 0.000575772 -0.000401091 -0.000376139 
-0.000148246 -0.00147761 -0.00446244 -0.00492259 -0.00605546 -0.00147818 0.00283916 0.0057368 0.00330118 -0.00172201 
-0.00421806 -0.000744304 0.00190134 0.0017553 -0.000979262 -0.00100719 -3.62083e-05 0.000859862 -1.33497e-05 -0.000871707 
-6.80137e-05 0.000131644 3.16396e-05 -0.000645748 0.000506143 0.0012851 -0.000953461 0.00165629 9.46203e-05 -0.00056769 
0.000186727 0.000140301 -0.00167221 0.00137658 -0.000913824 -0.000115665 0.00174068 -0.00181936 0.0022893 -0.00172868 
0.000660942 -0.000833574 -0.000567977 -0.000320366 -0.000246566 -0.000253533 0.000736456 -0.000334553 0.00105138 -0.000294128 
0.000399447 0.000384569 -0.000711894 0.000862966 -0.00231348 0.00213994 -0.00137648 -0.0010959 0.00061825 0.00163247 
6.53735e-05 -0.00457213 0.00920015 -0.0087568 0.0034051 0.000868068 -0.00183727 0.00122392 3.62271e-05 -0.000609316 
-9.67886e-05 8.67245e-05 0.0002358 0.000320804 7.46716e-05 -0.000183666 -0.000211297 -9.50195e-05 9.44657e-05 0.000481428 
0.00260055 0.00225626 -0.00177189 0.000532841 -0.00186195 0.000500936 0.00105638 0.00113061 0.00289393 0.00162051 
0.00264802 0.00127157 0.00220269 0.000995884 0.00194043 0.00180619 0.00271791 0.00308654 0.00254508 0.00182239 
0.00308389 0.00195381 0.00465121 0.0058935 0.005901 0.00273256 -0.00276029 -0.00690367 -0.00471542 -4.6733e-05 
0.00472622 0.00304896 -0.00145438 -0.00262003 -0.000520074 0.00233367 -0.000319265 -0.000213217 -0.00057496 0.000241154 
0.00111331 -0.000746988 0.000532827 -4.40169e-05 0.000776236 -0.00105091 -0.000300515 0.000511682 -0.00224379 0.00121858 
-0.000584498 4.64866e-05 0.000511981 0.000771836 -0.00151206 0.002028 -0.00241975 0.000937077 -0.000519806 -0.000771212 
0.001416 -0.000806325 0.00132339 0.000298843 -0.000247012 0.00127406 -0.00185511 0.00199782 -0.00273774 0.00263421 
-0.00325857 0.00298694 -0.00265271 0.00317695 -0.00283189 0.00105494 0.00252182 -0.00235863 0.000912674 -0.00293377 
0.0080698 -0.0124439 0.00958773 -0.00224106 -0.0023294 0.00302767 -0.00140813 -0.000568674 0.000458708 6.35687e-05 
0.00013012 9.462e-05 -6.41643e-05 -6.62729e-06 0.000162528 8.99785e-05 -0.000125506 -0.000223866 -0.000177993 0.000504288 
0.00189011 -0.00334104 -0.00169703 -0.000796418 -0.00119099 0.00200244 -0.000465515 0.000168142 -0.00194079 -0.00291051 
-0.00417446 -0.0046872 -0.00502543 -0.00581265 -0.00578142 -0.00653659 -0.00604224 -0.00571757 -0.00574008 -0.00471455 
-0.00258977 -0.0047923 -0.00351477 -0.00673163 -0.005256 -0.00304773 0.00287928 0.007105 0.00759958 0.00100701 
-0.00436365 -0.00518545 2.33024e-05 0.0032107 0.00154964 -0.00111413 -0.00195099 0.00114069 0.000422976 -0.000185463 
-0.000104702 -0.00102326 0.00102609 -0.000961513 5.60451e-06 -0.000621196 0.00114834 -0.000647436 0.000648957 0.00145127 
-0.00147771 0.00158464 -0.00118601 -8.22581e-05 -0.000314758 0.000847116 -0.00156193 0.00331762 -0.00295583 0.00354843 
-0.00275457 0.00171506 -0.00184064 0.00060777 -0.00139678 0.00122253 -0.00180955 0.00236537 -0.00244705 0.00302407 
-0.00257007 0.00175911 -0.0018825 0.00174522 0.000638345 -0.00454316 0.00470162 -0.00359316 0.00570605 -0.0115722 
0.0147807 -0.00894929 -2.31428e-05 0.00461501 -0.00416073 0.000785835 0.00121274 -0.000589334 0.000220237 -0.000144836 
-0.000260333 -2.36894e-05 0.000237516 0.000233631 6.60307e-05 -8.19316e-05 -0.000139574 -6.91073e-05 -0.000103959 -0.000482677 
-0.00226122 -0.00132619 0.00217125 0.000479257 0.00265863 0.000687201 -1.71078e-05 -0.000334443 -0.000535203 0.00128433 
0.00146902 0.00505666 0.00466501 0.00766649 0.00685521 0.00845769 0.00789554 0.00850399 0.00543405 0.00590893 
0.00399317 0.00304539 0.00457876 0.00438546 0.00526372 0.00219746 -0.00346852 -0.00812921 -0.00890228 -0.00325025 
0.00417432 0.00657767 0.0030082 -0.00403381 -0.00245902 0.000114214 0.0021042 0.000548072 -0.00163909 0.000395432 
-5.42585e-05 0.000488196 0.00042317 -0.000826775 0.00127258 -0.000252233 0.000697099 -0.00116447 0.00137224 -0.00195661 
0.000330154 0.000279765 -0.00129068 0.00198545 -0.000920535 0.000782168 -0.000410979 0.000173888 -0.00192857 0.00209887 
-0.00373237 0.00417437 -0.00387736 0.00427026 -0.0029065 0.0027915 -0.00179216 0.000902567 -0.000680258 -0.000396549 
0.00173636 -0.00152281 0.00106261 -0.00309713 0.00681589 -0.00723617 0.00599925 -0.00854125 0.0150115 -0.0161516 
0.00732144 0.00290963 -0.00681667 0.00393402 0.000971701 -0.00220748 0.00104487 -0.00040054 -0.000269452 0.000298587 
0.00015477 3.82449e-05 -0.000119714 1.82983e-06 0.000140208 0.000120604 -8.7642e-05 -0.000199661 2.85222e-05 -0.00011192 
-0.0002606 0.00515455 0.00107132 0.000456036 -0.000213225 -0.00309605 -4.44394e-05 -0.00167451 0.00165097 0.000397513 
0.000627539 0.000340787 -0.00261969 -0.0022235 -0.00593428 -0.0052572 -0.00632814 -0.0049463 -0.00611054 -0.00206587 
-0.00307003 -0.000909624 -0.00233309 -0.00279125 -0.00313818 -0.000233273 0.00381001 0.00972936 0.0100292 0.00523971 
-0.00392543 -0.00847483 -0.00421838 0.000833565 0.00600695 8.81609e-05 -0.00195681 -0.000892175 6.24799e-05 0.00181114 
-0.00135515 0.000715975 -0.00102202 0.000239358 0.000532157 -0.0015705 0.0006887 -0.000939442 0.00114409 -0.00167884 
0.00269397 -0.00197944 0.00166508 -0.000693921 -0.00083784 0.000534594 -0.000884953 0.000279553 0.000929862 -0.000262314 
0.00101507 0.000154167 -0.000769093 0.00084619 -0.00175556 0.000914682 -0.000404254 4.80871e-05 0.00123293 -0.00272783 
0.00252166 -0.00142051 0.00294111 -0.00716499 0.00827956 -0.0074377 0.0112994 -0.0180501 0.0166634 -0.00502041 
-0.0060417 0.0079138 -0.00189764 -0.00334981 0.00310064 -0.00106932 -0.000370361 0.0009681 -0.000297535 -7.33139e-05 
-0.00019112 -2.47524e-05 0.000163959 0.00014269 7.128e-05 -3.53903e-05 -7.40875e-05 -0.000120551 -7.41479e-05 0.000591203 
0.00352369 0.00176381 -0.00425501 -0.00132284 -0.00350913 -0.000512893 0.00170455 0.00051903 0.00243444 -0.00176646 
-0.000739821 -0.00298175 -0.00238647 -0.00175032 -0.00182294 -0.000795487 0.000670656 -0.000554023 -0.00101201 -0.00104953 
-0.00311367 -0.00162643 -0.00224724 3.7301e-05 -5.4201e-05 -0.00136188 -0.00590025 -0.010474 -0.0112567 -0.00560843 
0.0028136 0.0103424 0.00766247 -0.000859273 -0.00470429 -0.00401629 0.00222881 0.00223081 -0.000718894 -0.000198939 
-0.00121842 0.00143034 -0.00101232 0.00153116 -0.00124677 0.00031609 0.00145684 -0.00104792 0.00111873 -0.000891702 
0.00140262 -0.00261723 0.00284055 -0.00329727 0.00332385 -0.00196395 0.00198814 -0.000900536 0.000810007 -0.00199289 
0.00188543 -0.00365504 0.00395728 -0.00416434 0.00465372 -0.00431222 0.00372146 -0.0034129 0.00375623 -0.00276884 
9.77363e-05 -0.00102367 0.00618165 -0.00818559 0.00848879 -0.0138994 0.0202574 -0.0160647 0.0016055 0.00933517 
-0.00758575 -0.00110249 0.00518713 -0.00292524 -0.000353823 0.00200303 -0.00139241 5.11165e-05 0.000102689 -8.64261e-05 
0.000271807 -3.27134e-05 -6.4933e-05 -3.71582e-05 9.57351e-05 0.000133608 -3.38409e-05 -0.000171654 -0.000241339 6.78937e-05 
0.000844418 -0.00462531 -0.00209972 0.000790996 0.00115988 0.00431035 0.00168027 0.0011727 -0.000693625 -0.00158163 
0.000182701 0.000826137 0.00392584 0.00480877 0.00579883 0.00592195 0.00848378 0.00593872 0.00890634 0.0075293 
0.00835332 0.00760892 0.00546386 0.00398633 0.00265246 0.00362867 0.00747173 0.0102454 0.0117701 0.00627677 
-0.00516266 -0.00994451 -0.0117799 -0.00103754 0.00593017 0.00494386 0.000591718 -0.00385324 -0.000132951 0.000854913 
9.89042e-05 0.000897599 -0.00139381 0.00100155 -0.00162756 0.00232521 -0.00199479 -0.000253943 0.000773042 -0.00105469 
0.000490874 -0.000734287 0.00185682 -0.00262851 0.00352136 -0.0045661 0.00406305 -0.00467801 0.00379874 -0.00310092 
0.00344693 -0.00279629 0.00378412 -0.0040681 0.00491551 -0.00478603 0.00427165 -0.00505092 0.00419078 -0.000488437 
0.0014251 -0.00740633 0.0101368 -0.0113993 0.0172763 -0.0222936 0.0146911 0.0025503 -0.0116842 0.00543572 
0.00441178 -0.00601891 0.00130846 0.00278038 -0.00298972 0.000606541 0.000785711 -0.000652878 0.000517309 -0.000187895 
-0.000175196 2.5212e-05 4.26054e-05 0.000135387 3.11855e-05 -9.44713e-06 -2.31528e-05 -5.52408e-05 -0.00011746 -0.000677014 
-0.00298024 -0.000733692 0.00441064 0.00226589 0.00310083 -0.000798057 -0.00288211 -0.00237342 -0.0031457 0.000306996 
-0.000111445 0.00105607 -0.000170913 -0.00200427 -0.00556248 -0.00713777 -0.00845216 -0.0118645 -0.0107092 -0.0131871 
-0.0112298 -0.0105026 -0.00827032 -0.00544174 -0.00429852 -0.00425827 -0.00677412 -0.0107605 -0.00949713 -0.0041208 
0.0043637 0.0154324 0.011268 0.00506301 -0.00664691 -0.00818559 -0.000922352 0.00162615 0.0035733 -0.001921 
0.000103786 -0.000281359 -0.000892186 0.00180546 -0.00118053 0.0011194 -0.00262011 0.00389352 -0.00225694 0.00074419 
0.000511191 -0.000100078 -0.000160622 -0.000356013 0.00105103 -0.00184111 0.00316312 -0.00321239 0.00443152 -0.00421323 