# vtk DataFile Version 2.0
Titre
ASCII
DATASET STRUCTURED_POINTS
DIMENSIONS 100 100 1
ORIGIN 0.0 0.0 0.0
SPACING 0.1 0.1 0.0
POINT_DATA 10000 
SCALARS rho float
LOOKUP_TABLE default
0.000299224 -0.00103522 0.000800103 0.000143529 -0.00075871 0.000119191 9.71256e-05 -0.00010219 0.000252224 0.000356099 
-4.30046e-05 -0.00056437 -0.000619288 -0.00034407 -4.30245e-06 0.000537946 0.00115528 0.00151683 0.00110637 -2.32189e-05 
-0.000870658 -0.000777149 -0.00021971 2.35796e-05 -4.93292e-05 -1.62383e-05 0.00025996 0.000528288 0.000554078 0.000420058 
0.000356534 0.000513766 0.000802466 0.00112002 0.00142001 0.00170368 0.00208294 0.00269503 0.00358595 0.00474513 
0.0060723 0.00740989 0.00861046 0.00952536 0.0100047 0.00989925 0.00903165 0.00722782 0.00436272 0.000420133 
-0.004413 -0.00969271 -0.0146962 -0.0184714 -0.0199984 -0.0184172 -0.0133396 -0.00512793 0.00494205 0.0147444 
0.0216985 0.0234591 0.0187764 0.00824716 -0.00541165 -0.0178779 -0.0245535 -0.022419 -0.0116737 0.00371087 
0.0171702 0.0222972 0.0160762 0.000891087 -0.0159805 -0.0258184 -0.0232728 -0.00976692 0.00700428 0.0175289 
0.0164697 0.00612054 -0.005448 -0.0103548 -0.00657834 0.00126106 0.00620177 0.00493782 -3.89026e-05 -0.00345152 
-0.00273524 0.000266208 0.00172402 0.000676212 -0.000834088 -0.00081351 0.000282702 0.000529987 -0.000228537 -0.000603425 
-0.00120106 -0.000497782 0.00191206 -0.000363745 0.000358416 -0.000353589 -0.000525511 0.000296696 5.42279e-05 -0.000372351 
-0.000427489 -0.000205897 2.7031e-05 0.000145273 0.000730807 0.00130817 0.00113326 -0.00012885 -0.00201494 -0.00262038 
-0.0011533 0.000644485 0.000907459 9.388e-05 -0.000288982 5.70187e-05 0.000376378 0.000101627 -0.000476996 -0.000852732 
-0.000888058 -0.000903044 -0.00121761 -0.00178801 -0.00248845 -0.00311305 -0.00343377 -0.00345098 -0.00323366 -0.00281128 
-0.00219084 -0.00120122 0.000399559 0.00282503 0.00619024 0.0104149 0.0151602 0.0198734 0.0237796 0.0259854 
0.0256079 0.0219223 0.0146136 0.00396432 -0.00894194 -0.0221932 -0.0332091 -0.0391905 -0.0378179 -0.0280985 
-0.0110929 0.00977254 0.0291566 0.0411004 0.041027 0.0277879 0.00491351 -0.0198322 -0.0368988 -0.0388552 
-0.0241526 0.00122504 0.0257015 0.0373499 0.0301986 0.00805295 -0.0169039 -0.030763 -0.026182 -0.00710831 
0.0136881 0.0231239 0.016696 0.00115226 -0.0112441 -0.0123235 -0.00385712 0.00518454 0.00715816 0.00218809 
-0.00329382 -0.00384489 -0.000221601 0.00253956 0.00176848 -0.000459062 -0.000946016 0.000254241 0.000779674 -0.000706708 
0.00069298 0.00253943 0.000300364 -0.00134758 -0.000455979 -0.000909237 0.000742139 0.000393141 -0.000534498 -0.000185577 
0.000182168 0.000182311 -4.42512e-05 0.000369236 0.0011049 0.000923434 -0.000100662 -0.00149537 -0.00156382 0.000510884 
0.00219977 0.00121273 -0.00101413 -0.00166739 -0.000678984 0.000128492 -0.000181136 -0.000943139 -0.00126208 -0.00117822 
-0.00123064 -0.00184777 -0.002761 -0.00359883 -0.00427694 -0.00476344 -0.00525918 -0.00608326 -0.00727252 -0.00877127 
-0.0103224 -0.0115531 -0.0121784 -0.0119723 -0.0107582 -0.00844035 -0.00492195 -0.000154209 0.00575887 0.0125285 
0.019532 0.0258173 0.0301673 0.0312509 0.027974 0.0198159 0.00724438 -0.00806251 -0.0232513 -0.0347302 
-0.0390401 -0.0339833 -0.0197103 0.000702217 0.0216396 0.0364237 0.0396864 0.0297186 0.00981746 -0.0124375 
-0.0280227 -0.0305426 -0.0195499 -0.00118143 0.0147404 0.0199553 0.0125056 -0.0020399 -0.0140695 -0.0160524 
-0.00747418 0.00513754 0.0129861 0.0114936 0.0031011 -0.0050801 -0.00730186 -0.00334795 0.0020724 0.00407729 
0.00179672 -0.00153289 -0.00245249 -0.000739221 0.00103566 0.000950057 -0.000207766 -0.000653897 0.000610074 0.00106032 
0.000268974 -0.00148015 -0.00233357 -0.000688402 0.000625334 0.000803579 0.000894776 -0.00100431 -0.00031836 0.000482474 
5.82586e-05 -0.000398665 -6.24108e-06 0.00108502 0.00115953 0.000229055 -0.00100845 -0.00165233 -0.000300537 0.00101784 
-0.000315655 -0.00254544 -0.00226195 8.05967e-05 0.00136721 0.000619696 -0.000695747 -0.00111602 -0.000914316 -0.000921459 
-0.00146393 -0.0021725 -0.00247701 -0.00256816 -0.0027787 -0.00328489 -0.0043564 -0.00593038 -0.00776085 -0.00970076 
-0.0115297 -0.0132431 -0.0148903 -0.0164334 -0.0177263 -0.0184791 -0.0182345 -0.0165669 -0.0131252 -0.00775595 
-0.00066853 0.00760698 0.0160936 0.0235208 0.0284346 0.0294963 0.0258372 0.0174393 0.00540485 -0.0079974 
-0.0196958 -0.0265341 -0.0263083 -0.0187305 -0.00593703 0.00786636 0.0177398 0.0199732 0.0138682 0.00241165 
-0.00886073 -0.0144661 -0.0119488 -0.00338314 0.00564512 0.00944214 0.00583916 -0.00218186 -0.00858275 -0.00851793 
-0.00201016 0.00617078 0.0101742 0.00773504 0.00156412 -0.00335807 -0.00404281 -0.00158825 0.000879765 0.00134697 
0.000401884 -0.00040735 -0.000317582 1.86814e-05 0.000175989 0.000200025 0.000373785 -0.000372524 -0.000563765 -0.00067954 
-0.00039842 3.54779e-05 0.00161451 0.00197494 0.000816043 -0.000358045 -0.0010579 -0.000749874 0.00104493 7.38881e-05 
-0.000716492 -8.91322e-05 0.0011723 0.00142706 0.000406917 -0.000699972 -0.00168583 -0.000984804 0.00091838 0.000575407 
-0.00130213 -0.00105481 0.00119021 0.0018889 0.00023088 -0.00140222 -0.0013249 -0.00023234 0.000438445 0.00058956 
0.000654186 0.00120308 0.00201663 0.00244712 0.00254972 0.00241977 0.00200322 0.00148311 0.000712521 -0.000495034 
-0.00237805 -0.00521518 -0.00902227 -0.0136214 -0.0186633 -0.0236049 -0.0278105 -0.0306196 -0.0312949 -0.0292149 
-0.0239392 -0.015369 -0.00402431 0.00895822 0.0216763 0.0317795 0.0368187 0.0349383 0.0255749 0.0100427 
-0.00832682 -0.0246977 -0.0340167 -0.0327384 -0.0205593 -0.00115318 0.018485 0.0305659 0.0297894 0.0163003 
-0.00377779 -0.0207264 -0.0261572 -0.0176926 -0.000831726 0.0140856 0.0180646 0.00949011 -0.0047651 -0.0140798 
-0.0118842 -0.000470825 0.0109609 0.0138852 0.00726106 -0.00238189 -0.00714278 -0.00480231 0.000437115 0.00297862 
0.0015066 -0.00107975 -0.0015647 -0.000233122 0.000664019 0.00014407 0.000288153 0.000382422 0.000790407 0.000166126 
3.85683e-05 0.000786876 -0.000409328 -0.00186471 -0.00199884 -0.000901997 0.000321504 0.00127298 0.000496248 -0.00120314 
-9.08056e-05 0.00116915 0.00130569 0.000398374 -0.000416216 -0.0013276 -0.00148082 0.000547428 0.00125095 -0.000890019 
-0.0017787 -3.67984e-05 0.00107949 7.712e-05 -0.000688261 0.000316398 0.00208858 0.00290918 0.00296172 0.00320863 
0.00395028 0.00520384 0.00626568 0.00719451 0.00854202 0.0100625 0.0115888 0.0130899 0.0142533 0.0149763 
0.0150017 0.0142034 0.0124293 0.0094566 0.00504694 -0.000956146 -0.00855628 -0.0174064 -0.0267196 -0.0353682 
-0.0418108 -0.044492 -0.0420116 -0.0335927 -0.0194704 -0.00115173 0.0184816 0.0355431 0.0458858 0.0462588 
0.0355518 0.0157294 -0.00812188 -0.0288464 -0.03954 -0.0361878 -0.0198831 0.00300152 0.022891 0.031206 
0.0245405 0.00684183 -0.0123779 -0.0229768 -0.0200886 -0.00694399 0.00722859 0.0134386 0.00909152 -0.000592253 
-0.00696327 -0.00502674 0.00280875 0.00923033 0.00888904 0.00273581 -0.00341123 -0.00497432 -0.00231209 0.000621831 
0.0012349 1.63069e-05 -0.000763919 -0.000317858 0.000472283 -0.00027401 -0.000371525 -0.000511464 -2.08691e-05 0.000239903 
0.000153467 -0.000327981 -0.00112467 0.000424263 0.00220498 0.00239939 0.00127339 -0.000222997 -0.00150356 -0.000554428 
0.00113592 0.000785046 0.000344668 0.000187383 -0.000522016 -0.0016056 -0.000206301 0.00174561 3.83955e-05 -0.00187069 
-0.00032069 0.00184187 0.00176067 0.000891989 0.0011932 0.0021717 0.00249776 0.00216669 0.00255893 0.00358088 
0.00496073 0.00639216 0.00752104 0.00908492 0.0110393 0.012804 0.0147766 0.0170876 0.0197158 0.0226395 
0.0256385 0.0284875 0.0307119 0.0318417 0.031342 0.0287726 0.0238197 0.0163947 0.00665809 -0.00491787 
-0.017371 -0.0294287 -0.0392846 -0.0451134 -0.0451609 -0.0384524 -0.0251665 -0.00707637 0.01248 0.0291179 
0.0384797 0.0376723 0.0265822 0.00846077 -0.0106929 -0.0241395 -0.0270555 -0.0189173 -0.00402756 0.0102043 
0.0169431 0.0135819 0.00327215 -0.00703353 -0.0109374 -0.00692612 0.000892809 0.00592889 0.0045999 -0.000899466 
-0.00449326 -0.00200924 0.00475665 0.00943447 0.00732998 0.000167336 -0.00550012 -0.00519426 -0.000748763 0.00207939 
0.00086683 -0.00173388 -0.00199933 -0.000117508 0.001857 0.000664997 -0.000214841 -9.80164e-05 0.00033762 5.3816e-05 
-0.000326786 -0.00037519 0.000449521 0.0016374 0.000161345 -0.00201027 -0.00258331 -0.00175022 -0.000305768 0.00110686 
0.000714452 0.000445062 0.00126775 0.000502358 -0.0016127 -0.00132541 0.00156509 0.00116524 -0.0017318 -0.00110485 
0.00151479 0.0019367 0.000627791 4.85982e-05 0.000717148 0.00154733 0.00163369 0.00185981 0.00256594 0.00284703 
0.00309491 0.00298142 0.00275945 0.00308027 0.00329109 0.00371109 0.00518302 0.00741395 0.0103749 0.0139823 
0.0182522 0.0230562 0.0282575 0.033621 0.0386645 0.0428504 0.045365 0.0453697 0.0420154 0.0347701 
0.0235564 0.00898565 -0.00748166 -0.0237306 -0.0370115 -0.0446778 -0.0446005 -0.0361173 -0.0204461 -0.000950701 
0.0175034 0.0297147 0.0320453 0.0238603 0.00847216 -0.00797593 -0.0186045 -0.0192202 -0.010329 0.00256178 
0.0119478 0.0123634 0.00414111 -0.00688217 -0.0127819 -0.00942765 0.000529994 0.00915221 0.00962777 0.00195925 
-0.0065451 -0.0074757 0.000682859 0.010623 0.0126642 0.00433321 -0.00668632 -0.0104774 -0.0047737 0.0026836 
0.0038797 -0.000591302 -0.003759 -0.00268302 0.00135069 0.00155881 -0.000379316 -0.00104174 0.000174185 0.000332633 
-0.000312755 0.000545805 0.000939002 7.14672e-05 -0.00147705 -0.000502946 0.00165779 0.00224971 0.00150572 0.000480618 
0.000285114 0.00159986 0.000932265 -0.0020066 -0.00248699 0.000948419 0.00227726 -0.000893661 -0.00180059 0.0009117 
0.00201493 0.000928006 -8.68176e-05 6.30727e-05 0.000791437 0.000517366 -0.000819089 -0.00161938 -0.00260236 -0.00388365 
-0.00501488 -0.00685607 -0.00854326 -0.0100362 -0.0118624 -0.0129791 -0.0135729 -0.0141834 -0.0143173 -0.0135933 
-0.0115486 -0.00799109 -0.00259603 0.00450509 0.0131195 0.0228247 0.0327623 0.0420471 0.0493872 0.0535934 
0.0533652 0.0479039 0.0368623 0.020954 0.00193955 -0.0173045 -0.0331471 -0.0420814 -0.0415977 -0.0314515 
-0.0140377 0.00559223 0.0213449 0.0279398 0.0234711 0.0103019 -0.00527401 -0.0160363 -0.017106 -0.0089976 
0.00284591 0.0107351 0.00996732 0.0016508 -0.00759423 -0.0105325 -0.00473104 0.00508732 0.0106053 0.00702625 
-0.00245863 -0.00865378 -0.00507212 0.0054294 0.0125157 0.00823446 -0.00395144 -0.012565 -0.00968088 0.00026078 
0.00568167 0.00201667 -0.00323814 -0.00440833 0.000308648 0.00282494 0.0010076 -0.00111513 -0.00044741 0.000532129 
3.9961e-05 0.000694725 -5.74765e-05 -0.000825019 -0.000217841 0.00124962 0.000425633 -0.00200811 -0.00261362 -0.00108484 
0.00113418 0.00131467 -0.00143202 -0.00219296 0.000999402 0.00312288 0.000242404 -0.00217579 -0.000175171 0.00145922 
0.000671384 -0.000466815 -0.00137673 -0.00143294 -0.00167846 -0.00348658 -0.0049521 -0.00547151 -0.00697327 -0.0086684 
-0.0111106 -0.0143982 -0.017052 -0.0200944 -0.0234788 -0.0265426 -0.0302968 -0.034196 -0.0374838 -0.0398957 
-0.0413025 -0.0414666 -0.0399937 -0.0367725 -0.0312716 -0.0234507 -0.0132977 -0.00103838 0.012475 0.0262381 
0.0385536 0.0477709 0.0519859 0.0500014 0.0412053 0.0264824 0.00799611 -0.0107019 -0.0255058 -0.0328291 
-0.0308681 -0.0206151 -0.00585273 0.00793884 0.0157252 0.0151714 0.00788259 -0.00135364 -0.0070313 -0.0062835 
-0.000529595 0.00522144 0.00593991 0.000443954 -0.00735782 -0.0109007 -0.00629708 0.00401114 0.0120373 0.0108392 
0.000696687 -0.00963077 -0.0101242 0.000495297 0.0125158 0.0132036 0.000518877 -0.0138099 -0.0161123 -0.00485308 
0.00668155 0.00569547 -0.00190208 -0.00680636 -0.00273343 0.00264389 0.00234987 -0.000703641 -0.000966039 0.000470674 
0.000263868 0.000153354 -0.000408154 1.75681e-05 0.000789151 1.1604e-06 -0.00179958 -0.00141152 0.00169732 0.00383329 
0.0033984 0.000617906 -0.00117561 0.000381168 0.00177754 -0.000111747 -0.00242278 -0.00120206 0.000503327 0.000201204 
-0.000330579 -0.00153222 -0.0026577 -0.00230648 -0.00323563 -0.00520086 -0.00560342 -0.00672229 -0.00916581 -0.0110874 
-0.0136474 -0.0154692 -0.0166187 -0.0189907 -0.0214539 -0.0242966 -0.0281107 -0.0318433 -0.0358208 -0.040239 
-0.045181 -0.0500029 -0.05434 -0.0576325 -0.0590211 -0.0582196 -0.0543657 -0.0473343 -0.0370149 -0.0237455 
-0.00844341 0.00763244 0.0225598 0.0343356 0.0408074 0.040698 0.0336232 0.0211143 0.00597209 -0.00770992 
-0.0163764 -0.017795 -0.0127142 -0.00420638 0.00303477 0.0055129 0.00242112 -0.00333559 -0.00715053 -0.00533409 
0.00170393 0.00963337 0.0123007 0.00674311 -0.00439164 -0.0134794 -0.0133591 -0.00292834 0.0106648 0.0167195 
0.00973002 -0.00520517 -0.0148162 -0.00997519 0.00523643 0.0155617 0.00914903 -0.008199 -0.0194505 -0.0132195 
0.00362533 0.00991065 0.003255 -0.00620922 -0.00596797 0.0011148 0.00368739 0.000323426 -0.00145445 0.000141415 
0.000381014 -0.000262109 5.24853e-05 0.000327856 -0.000270692 -0.00152331 -0.00100326 0.00124524 0.00242363 0.000726787 
-0.00142476 -0.0027034 -0.00199333 -0.000665826 -0.000389079 -0.00047178 0.000124525 0.000314838 -0.000304104 9.23757e-05 
-0.000464355 -0.00293105 -0.00291807 -0.00211706 -0.00403347 -0.00472159 -0.00395064 -0.00495385 -0.00492986 -0.00381967 
-0.00313958 -0.00123399 -0.000259784 -0.000188751 0.000642222 0.000607699 1.00446e-05 -0.00107413 -0.0035742 -0.00746415 
-0.0126478 -0.0185834 -0.0256231 -0.0331247 -0.0407114 -0.0478781 -0.0534634 -0.0571242 -0.0576111 -0.0545992 
-0.0475004 -0.0365453 -0.0224501 -0.00678599 0.00824515 0.020159 0.0266461 0.0266933 0.020615 0.0110028 
0.00115265 -0.00515127 -0.00632325 -0.00284677 0.00187631 0.00422441 0.00173498 -0.00425516 -0.0099315 -0.0104682 
-0.00433055 0.00579506 0.013489 0.0131531 0.00409291 -0.0082221 -0.015078 -0.0110867 0.0017976 0.0138825 
0.0155338 0.00445836 -0.0100912 -0.0145752 -0.00446848 0.0106993 0.0136129 4.76092e-05 -0.0163073 -0.0191712 
-0.0030954 0.0104601 0.00845068 -0.00316854 -0.00825223 -0.00189844 0.00418257 0.00207997 -0.00143057 -0.000374673 
0.000547615 -0.000390421 0.000372551 -0.00035613 -0.000971444 -0.000646263 0.000879014 0.00128159 0.00022762 -0.000451857 
0.000425619 0.000894997 0.00118659 0.00174485 0.0025229 0.00163692 -0.00120334 -0.00292762 -0.000888069 0.000665175 
-0.00221477 -0.00351486 -0.000668246 -0.000736483 -0.00185121 0.000819584 0.00264668 0.00365058 0.00727871 0.0102165 
0.0134154 0.0178663 0.0213056 0.0259488 0.0309539 0.0345705 0.0380542 0.0403264 0.0412455 0.0407323 
0.0387924 0.0351084 0.0291208 0.0217458 0.0126951 0.00277905 -0.00757597 -0.0179948 -0.027296 -0.0351704 
-0.0402033 -0.0419893 -0.0396591 -0.0334416 -0.0238953 -0.0127739 -0.00213894 0.00570622 0.00936365 0.00889102 
0.00588248 0.00306657 0.00253025 0.00487442 0.00806406 0.00905826 0.00518942 -0.00288726 -0.0114989 -0.0152359 
-0.0108707 -1.68541e-05 0.0113892 0.0159989 0.0109037 -0.00109725 -0.0116361 -0.0137077 -0.00527417 0.00754816 
0.0149975 0.0106076 -0.00332642 -0.0141363 -0.0117418 0.00300647 0.0141618 0.00756133 -0.00918769 -0.0205791 
-0.0101985 0.00862399 0.0138077 0.00270387 -0.00810536 -0.0055777 0.00303637 0.00397969 -0.000626545 -0.000870761 
0.000784428 -0.000471538 0.00024889 -0.000915204 -0.000461884 0.000232704 0.00026517 -0.000441022 0.000219313 0.00190373 
0.00181147 -0.000642422 -0.00176517 -0.000804604 -0.000836254 -0.00372879 -0.00482231 -0.00068959 0.00347356 0.000777278 
-0.00263636 0.000590409 0.00327459 0.00162127 0.00402332 0.00838613 0.00968659 0.01325 0.018352 0.0219904 
0.0278992 0.0337721 0.0388864 0.0451042 0.0497225 0.0540246 0.0586439 0.062134 0.0651845 0.0669977 
0.0678668 0.0669508 0.0646235 0.0612819 0.0559691 0.0496032 0.0414662 0.0322814 0.022171 0.0114983 
0.00121226 -0.00825535 -0.0155167 -0.0200969 -0.0211413 -0.0192619 -0.0151566 -0.0109388 -0.0078171 -0.00696963 
-0.00723375 -0.00693859 -0.00360053 0.00319857 0.0116688 0.017498 0.0166544 0.00780442 -0.00531826 -0.01611 
-0.017894 -0.00977515 0.00373822 0.0136876 0.0144379 0.00576946 -0.00566333 -0.0121729 -0.0097757 -5.36914e-05 
0.00947079 0.0124018 0.00452118 -0.00780576 -0.0136917 -0.00607909 0.00914249 0.0117466 -5.14793e-05 -0.016329 
-0.0159326 0.00257268 0.01601 0.00981111 -0.00445515 -0.00790547 0.000386936 0.00509654 0.000978777 -0.00108886 
0.000865004 -0.000661883 -3.09574e-06 -0.000883885 7.45238e-05 -0.000187112 -0.000631508 0.000515127 0.00266258 0.00226678 
-0.00140979 -0.00353419 -0.00113871 0.00197703 0.00142345 -0.000226521 0.0020404 0.00499306 0.00220756 -0.0027593 
-0.000301961 0.00465846 0.00381971 0.00438931 0.010071 0.0121991 0.0137026 0.0189165 0.0220103 0.0248255 
0.0290982 0.0306335 0.0325451 0.0345777 0.0356097 0.0383643 0.0405449 0.0424709 0.0446512 0.0463997 
0.048513 0.0498034 0.0512882 0.0517816 0.051084 0.0500582 0.0477183 0.0452928 0.0416848 0.0375204 
0.0321931 0.0259671 0.0192021 0.012413 0.00670406 0.00230633 -0.000396888 -0.0027579 -0.00544479 -0.00995152 
-0.0150452 -0.0191876 -0.018609 -0.0118958 0.000551237 0.0135534 0.0212607 0.018579 0.00687907 -0.00783548 
-0.016389 -0.0142341 -0.00327944 0.00813548 0.0122217 0.00747948 -0.00163972 -0.00732317 -0.0074253 -0.00221066 
0.00312911 0.00660362 0.00534556 -0.0014779 -0.00854037 -0.00980049 0.00150799 0.010102 0.00607945 -0.00831649 
-0.0160261 -0.00377734 0.0143938 0.0154076 0.0011221 -0.00787441 -0.00245671 0.00494963 0.00278868 -0.000803481 
0.000568349 -0.000800675 -7.15626e-05 -0.000584956 -6.35345e-06 -0.000783357 -4.15137e-05 0.00221369 0.00222395 -0.000972337 
-0.00330902 -0.000584885 0.0034828 0.00341015 -0.000759044 -0.00288338 -0.00162183 -0.00143769 -0.00266641 8.80937e-05 
0.00559479 0.005652 0.00449037 0.0089878 0.0116615 0.0100933 0.0122879 0.0136802 0.0112794 0.0107225 
0.00833131 0.00392807 0.00154286 -0.00223428 -0.00520674 -0.00716166 -0.0101854 -0.0109389 -0.0108932 -0.00945968 
-0.00690354 -0.00447575 -0.00130954 0.000553065 0.00276698 0.00486127 0.00678414 0.00950391 0.0119201 0.0151755 
0.0177776 0.0202693 0.0214938 0.0220024 0.0217634 0.0214048 0.0209111 0.0194977 0.0158598 0.00842744 
-0.0024696 -0.014785 -0.0235693 -0.0246258 -0.0155955 -8.74908e-05 0.0148591 0.0208144 0.0145586 0.000184138 
-0.0126753 -0.0150957 -0.00663011 0.00596483 0.0113753 0.00710962 -0.00300355 -0.00800336 -0.0055708 0.000959586 
0.00438619 0.00276104 0.00115907 -0.000929243 -0.00269197 -0.00676603 -0.00322166 0.00559659 0.00781367 -0.00139374 
-0.0124423 -0.00856205 0.00952715 0.0182271 0.00716241 -0.0059698 -0.00469142 0.00391842 0.00432256 1.3735e-05 
-0.000148197 -0.000606469 -5.38201e-05 -0.00047115 -0.000483331 -0.000714761 0.00109248 0.0023656 0.000265816 -0.00173662 
-0.000602331 0.00231475 0.00167069 -0.0019608 -0.00449045 -0.00200692 0.00234361 0.00512188 0.00620457 0.00654439 
0.00460713 0.00249741 0.00523684 0.0070957 0.00325425 0.00138201 0.00092343 -0.00535887 -0.0112269 -0.0162999 
-0.0256392 -0.0333353 -0.0405267 -0.049164 -0.0545218 -0.0599005 -0.0630593 -0.0623348 -0.0611719 -0.0572115 
-0.0529904 -0.0481999 -0.0432612 -0.0398455 -0.0361082 -0.0344577 -0.0329382 -0.0317882 -0.0301183 -0.0268361 
-0.0226349 -0.0167654 -0.0108855 -0.00419978 0.00211608 0.00940169 0.016668 0.0239825 0.0283741 0.0278246 
0.0196248 0.00517014 -0.0116411 -0.0233935 -0.0245551 -0.0135529 0.00334797 0.0169437 0.0180883 0.00731735 
-0.00830499 -0.0155232 -0.0101991 0.00437837 0.0136739 0.0105667 -0.00279737 -0.0125714 -0.00929768 0.00166786 
0.0095709 0.0049631 -0.00265027 -0.00555734 -0.00158716 -0.000720052 -0.00276131 0.000643242 0.00582196 0.00307775 
-0.0063889 -0.0094498 0.00323689 0.0168283 0.0118304 -0.00301395 -0.00639542 0.00218479 0.00529022 0.00136674 
-0.00121088 -7.07187e-05 -0.000256135 -0.000582054 -0.000788638 -3.02874e-05 0.00169552 0.00149198 -0.000563747 -0.000508356 
0.000394056 0.000272944 -0.00114061 -0.000630883 0.00133539 0.00415406 0.00473859 0.00271482 -0.00125644 -0.00369935 
-0.00238613 0.00164474 0.00245422 -0.00319953 -0.00767895 -0.00938427 -0.0172276 -0.027172 -0.0333392 -0.0437441 
-0.0548568 -0.0616091 -0.0703088 -0.0762113 -0.0784231 -0.08101 -0.0783489 -0.0745057 -0.0696264 -0.0613786 
-0.0536309 -0.0441604 -0.0362036 -0.0297576 -0.0251419 -0.0246387 -0.0253792 -0.0292418 -0.0329018 -0.0365816 
-0.0385894 -0.0387138 -0.0372859 -0.033813 -0.0291898 -0.021563 -0.0116896 0.00182881 0.0154744 0.0269464 
0.0300847 0.0237505 0.00795744 -0.00921221 -0.0207661 -0.0188992 -0.00647267 0.00993539 0.017368 0.011867 
-0.00422047 -0.0166281 -0.0158637 -0.000642055 0.0158316 0.018164 0.00425137 -0.0145309 -0.0171043 -0.00380109 
0.0128603 0.0133558 -0.000285487 -0.0103936 -0.00636662 0.00294044 0.00329275 -0.000511213 0.00161469 0.00346806 
-0.00148883 -0.00703561 -0.00125477 0.0124707 0.0138595 0.000225235 -0.00777825 -0.000529965 0.00519561 0.00312949 
-0.00254199 0.000704264 -0.000756456 -0.000619803 -0.000743448 0.000635358 0.00155318 0.000791366 -0.000203637 3.11483e-05 
-0.000706307 -0.000542969 0.00124817 0.00253136 0.000270755 -0.00171022 -0.00223848 -0.00171278 -0.00111422 0.00219065 
0.00529966 0.00223527 -0.00687973 -0.0131676 -0.0148728 -0.0224315 -0.0343666 -0.039857 -0.0461732 -0.0565495 
-0.0599142 -0.0621219 -0.0656572 -0.0626751 -0.0603759 -0.0569334 -0.04889 -0.0430172 -0.0334974 -0.0228655 
-0.0125772 -0.000386923 0.00928027 0.0190164 0.025133 0.0277633 0.026998 0.0208791 0.0132582 0.00280203 
-0.00639893 -0.0155125 -0.0226031 -0.0288552 -0.033475 -0.0356768 -0.0338371 -0.0257522 -0.0122074 0.00477594 
0.0184403 0.0241369 0.017658 0.00359426 -0.0115908 -0.0172392 -0.0108941 0.00448534 0.016903 0.0172519 
0.00371449 -0.0143576 -0.0215259 -0.0120024 0.00989933 0.0223669 0.0161183 -0.00754867 -0.0224589 -0.0143398 
0.00776916 0.0204421 0.00822341 -0.0108361 -0.0137489 -0.000347376 0.00906936 0.00344536 -0.00156732 0.00125513 
0.00160896 -0.00313518 -0.00306685 0.00709307 0.0128633 0.00314717 -0.00824135 -0.00400361 0.00323902 0.00474643 
-0.00389112 0.00156509 -0.00144621 -0.000439768 -0.000584316 0.000960088 0.00123752 0.00073482 0.000134813 -0.000741132 
-0.00137101 0.00105963 0.00296954 8.22855e-05 -0.00373716 -0.000959639 0.0041341 0.00524529 0.00200861 -0.00110395 
-0.00665946 -0.0146991 -0.0187784 -0.0176712 -0.0220757 -0.0327119 -0.0358144 -0.0342331 -0.0391827 -0.0389353 
-0.0315563 -0.0289889 -0.0224764 -0.0127417 -0.00847705 -0.000641841 0.00552084 0.00820215 0.0141849 0.0170107 
0.0224354 0.0295092 0.0368931 0.0472077 0.0547556 0.0622394 0.0646683 0.0629782 0.0578497 0.0488313 
0.0396265 0.0285547 0.0190164 0.00776817 -0.00285493 -0.0149802 -0.0240797 -0.0289908 -0.0251537 -0.0142424 
0.000899992 0.012578 0.0155457 0.00787597 -0.00482251 -0.0145983 -0.0134033 -0.00241418 0.0127203 0.0187534 
0.0128207 -0.00543335 -0.0189586 -0.0204103 -0.00241312 0.017372 0.0235531 0.0065978 -0.0188681 -0.0227258 
-0.00359073 0.0203612 0.0192429 -0.00459713 -0.0180424 -0.00771757 0.0103132 0.0104165 -0.00172428 -0.00363283 
0.00147627 0.000978269 -0.001992 0.00299136 0.00977041 0.00475223 -0.00757895 -0.00685452 -0.000355596 0.00528974 
-0.00488536 0.00238821 -0.00215564 -0.000110572 -0.000533472 0.00106235 0.00116065 0.00085901 -0.000226832 -0.00160771 
-0.000361793 0.00277491 0.0017634 -0.00299847 -0.00250338 0.00327161 0.00321632 -0.00416365 -0.0103932 -0.0106394 
-0.0103717 -0.0104234 -0.00962102 -0.0127354 -0.0209392 -0.0219564 -0.0140007 -0.0112027 -0.00834163 0.00635419 
0.018085 0.0262032 0.0404553 0.0473649 0.0492311 0.052327 0.0454522 0.0373996 0.0284752 0.0165749 
0.0110881 0.00621455 0.00729812 0.0130882 0.0209567 0.0328409 0.0406794 0.0483305 0.0505135 0.049981 
0.0468175 0.0422835 0.0387267 0.0331083 0.0269634 0.015616 0.00390117 -0.00911262 -0.014796 -0.0146514 
-0.00552769 0.00344438 0.00985115 0.00602216 -0.00221184 -0.0124267 -0.013289 -0.00733292 0.00653973 0.0144728 
0.0157033 0.00378987 -0.00955354 -0.0183898 -0.0126447 0.00514829 0.018918 0.0179613 -0.0062865 -0.0232875 
-0.0153607 0.0102989 0.0250404 0.00574125 -0.017833 -0.0158273 0.00566696 0.0162408 0.00329636 -0.0075238 
-0.00244089 0.00311832 0.000444526 0.000651738 0.00624216 0.00527362 -0.00621066 -0.00819771 -0.00403121 0.00433063 
-0.00522627 0.00299179 -0.00277746 0.000191865 -0.000575244 0.00120754 0.00130664 0.000687053 -0.000928721 -0.0016392 
0.00112423 0.00250561 -0.000710485 -0.00337583 0.000463948 0.00256974 -0.0026991 -0.00734274 -0.00467187 -0.000264597 
-0.00216869 -0.00751164 -0.0119985 -0.0145307 -0.0105161 0.00193162 0.0124298 0.0200862 0.0382793 0.0587975 
0.0690255 0.0822678 0.0924053 0.0887802 0.0848748 0.073476 0.0512011 0.0309763 0.00447418 -0.0198225 
-0.0390259 -0.056961 -0.0632245 -0.0641404 -0.0556586 -0.0420236 -0.0284042 -0.0126712 -0.00361098 0.00447069 
0.00714025 0.0109531 0.0145229 0.0192213 0.0227428 0.0218046 0.0171573 0.00780953 0.00116166 -0.0029732 
0.00112011 0.00542276 0.00971002 0.00528954 -0.00187632 -0.0112955 -0.0120913 -0.00771641 0.00251032 0.00828948 
0.00927781 0.00482722 -0.0022623 -0.0063621 -0.0100004 -0.0025333 0.00593131 0.0159701 0.00728547 -0.0137929 
-0.0183802 -0.00249159 0.0218142 0.0166924 -0.0116295 -0.0211252 -0.00229502 0.016858 0.00989245 -0.00762232 
-0.00788954 0.00245964 0.00335181 -0.000258505 0.00233034 0.00477704 -0.00418585 -0.0079753 -0.00604132 0.00241507 
-0.00490065 0.00324396 -0.0032193 0.000372283 -0.000557552 0.00143898 0.00137714 0.000131785 -0.0014055 -0.00103119 
0.00184919 0.0011725 -0.00154181 -0.00171809 0.000953078 -0.00132867 -0.00484847 -0.00395791 -0.00182141 -0.00500626 
-0.0109823 -0.0112918 -0.00394125 0.00761818 0.0213149 0.0338297 0.0452674 0.06352 0.0856863 0.0970884 
0.10488 0.114796 0.109662 0.0980616 0.0867412 0.0615951 0.0352339 0.00912879 -0.023874 -0.0490181 
-0.075058 -0.0954775 -0.105039 -0.110059 -0.101675 -0.0905564 -0.0732236 -0.0553958 -0.0424435 -0.0315745 
-0.028598 -0.023831 -0.0214529 -0.0135378 -0.00706954 0.000386114 0.00240238 0.00200829 3.10647e-05 0.000848275 
0.00598555 0.0119888 0.0143664 0.00876126 -0.00209269 -0.011584 -0.0126204 -0.00368316 0.00609214 0.0108362 
0.00289545 -0.00349696 -0.00844356 -0.000509694 0.001432 0.00227199 -0.00129336 0.00176109 0.00947163 -0.00217148 
-0.0125039 -0.0100236 0.0103792 0.0211332 -0.00114212 -0.021614 -0.00999192 0.0137823 0.0147454 -0.00459581 
-0.0121378 -0.00079141 0.00561635 0.000701773 -0.00131495 0.00252173 -0.00207841 -0.00691317 -0.00555969 0.000877111 
-0.00419513 0.00307682 -0.00341728 0.000385749 -0.000374587 0.00163297 0.00124195 -0.000485725 -0.00140868 -0.000402848 
0.00169158 0.000162922 -0.00115179 -0.0013209 -0.00107142 -0.00278795 -0.00159967 -0.000802061 -0.00288049 -0.00431189 
0.000711681 0.0113704 0.0224555 0.0309679 0.0395294 0.0514056 0.0694099 0.0883146 0.0979372 0.100712 
0.106535 0.102622 0.0865982 0.0765554 0.0611066 0.0395372 0.0270178 0.0087443 -0.00904594 -0.021604 
-0.0422811 -0.0554998 -0.0683584 -0.0762614 -0.0732698 -0.0683347 -0.0515454 -0.0374336 -0.0230484 -0.0155768 
-0.0156151 -0.0171778 -0.0222893 -0.0208424 -0.0209675 -0.0154152 -0.015989 -0.0140622 -0.015709 -0.00913132 
-0.000431451 0.0139284 0.0191727 0.016253 -0.000627349 -0.0139937 -0.0202543 -0.00592721 0.0099456 0.0224498 
0.010041 -0.00696493 -0.0206184 -0.010147 0.00782613 0.0139813 0.00614234 -0.00983837 -0.00161607 0.00355148 
-0.0021313 -0.00740434 -0.000203073 0.0161204 0.00845845 -0.0163453 -0.0158622 0.00886634 0.017659 -0.000524379 
-0.0142744 -0.00489829 0.00649009 0.00299209 -0.00316835 -0.00121426 -0.000536111 -0.00617876 -0.00355491 0.00104172 
-0.00355516 0.0025368 -0.00333871 0.000215954 -2.1003e-06 0.00166409 0.000979319 -0.000923873 -0.00119736 -0.000171591 
0.00124902 3.85299e-05 -0.000709133 -0.00203698 -0.00179517 -0.000477904 0.00108234 -0.00201065 -0.00254551 0.00422767 
0.0134802 0.0193264 0.024446 0.0332347 0.047964 0.0656172 0.0801291 0.0836431 0.0803406 0.0785228 
0.0722419 0.053645 0.0415875 0.0381713 0.0298353 0.033602 0.0448847 0.0489132 0.0604656 0.0629323 
0.0545933 0.0468766 0.0271775 0.0137313 0.00224232 -0.00303896 0.00473459 0.0113968 0.0251566 0.0284993 
0.0293114 0.0223687 0.0135156 0.00652311 -0.000413974 -0.00294495 -0.0112006 -0.0165794 -0.0258789 -0.02225 
-0.0140072 0.0073905 0.0200687 0.0252311 0.00750324 -0.0119312 -0.0286843 -0.018691 0.00304553 0.0277258 
0.0263532 0.00220338 -0.024019 -0.0281976 0.00010733 0.0204215 0.021816 -0.00669634 -0.017314 -0.00237378 
0.00490854 0.00044801 -0.00364596 0.00598483 0.0110043 -0.00743255 -0.0178275 0.0023027 0.019058 0.00475813 
-0.0145222 -0.00899851 0.00625645 0.00539085 -0.0026299 -0.00515508 0.00069366 -0.00588631 -0.0022833 0.00307875 
-0.00326755 0.00175575 -0.00298984 -0.000111804 0.000557026 0.00149109 0.00073539 -0.00114478 -0.00103441 -0.000183218 
0.00106922 0.000347135 -0.0010234 -0.00274173 -0.000614173 0.00206723 0.00108929 -0.0014187 0.00529916 0.0153872 
0.0194826 0.0223764 0.0331452 0.0479765 0.0592842 0.0621682 0.0561179 0.0433537 0.031837 0.0179062 
-0.00386249 -0.0207635 -0.0193106 -0.0139174 0.0014275 0.0376226 0.0708049 0.10403 0.138767 0.149573 
0.151571 0.138088 0.107494 0.0802571 0.0465163 0.0282214 0.0203084 0.0219015 0.0342578 0.0393542 
0.0471941 0.0422521 0.0393939 0.0314846 0.0284985 0.0230946 0.0142928 0.000368315 -0.0171248 -0.0256533 
-0.0236787 -0.00488809 0.0146039 0.0280248 0.0194713 -0.00198464 -0.025688 -0.0309636 -0.0118637 0.0166287 
0.0361836 0.0188803 -0.0115677 -0.0378086 -0.0180408 0.0146995 0.032331 0.00993548 -0.0231052 -0.0158091 
0.00620621 0.00922616 -0.000503487 -0.00169991 0.00649732 -0.000164198 -0.0144264 -0.00434965 0.0164993 0.0101178 
-0.0120226 -0.0124031 0.00554955 0.00725585 -0.00037694 -0.00866938 0.00173484 -0.00433592 -0.00295848 0.00575673 
-0.00326279 0.000889064 -0.00240995 -0.000566557 0.0012338 0.00112374 0.000614156 -0.00125434 -0.00105934 -0.000212403 
0.00118658 0.000615957 -0.00160565 -0.0022095 0.00159926 0.00337588 0.000997203 0.00282108 0.0125048 0.0171188 
0.0167402 0.0237027 0.0356973 0.0383944 0.0298374 0.0158347 -0.000406885 -0.019954 -0.0420944 -0.0695525 
-0.0916735 -0.0951869 -0.0849418 -0.0663755 -0.0234208 0.029001 0.0747133 0.126587 0.162641 0.174418 
0.177217 0.150139 0.112643 0.0695218 0.0208202 -0.00721363 -0.028648 -0.0273905 -0.0180507 -0.00551695 