# vtk DataFile Version 2.0
Titre
ASCII
DATASET STRUCTURED_POINTS
DIMENSIONS 100 100 1
ORIGIN 0.0 0.0 0.0
SPACING 0.1 0.1 0.0
POINT_DATA 10000 
SCALARS rho float
LOOKUP_TABLE default
-0.000931922 0.000985296 -0.00116191 -0.00248115 0.00209878 0.00625763 0.00247408 -0.00234911 -0.00308703 -0.00111048 
-0.000226274 0.00137522 0.00100576 0.000349546 -0.00147706 -0.000606161 0.000449325 0.00109883 0.000366734 0.000206785 
-5.0107e-05 3.70171e-05 0.000441407 0.000773559 -0.000224037 -0.00111311 -0.00086403 -7.01546e-05 0.000221759 0.000447546 
0.000216867 -0.000300188 -0.000712498 -0.000820817 -0.000876014 -0.000440799 0.000129561 0.000620238 0.00089562 0.000764557 
0.000308946 -0.000187805 -0.000585196 -0.000726097 -0.000593834 -0.000363428 -9.14284e-05 7.95965e-05 0.000131564 0.000112576 
4.67443e-05 2.19745e-05 5.72289e-05 0.000164322 0.00033473 0.00053046 0.000733926 0.000901787 0.0010399 0.00111354 
0.00113831 0.00112185 0.00104464 0.000965837 0.000846426 0.000746998 0.00062444 0.000528807 0.000430043 0.0003443 
0.000287669 0.000194789 0.000184504 9.18715e-05 9.04714e-05 2.93065e-05 9.40861e-06 -3.96006e-05 -6.38847e-05 -0.000123334 
-0.00010553 -0.000101325 3.47093e-05 0.000193139 0.000427203 0.000600774 0.000634791 0.000457663 8.86661e-05 -0.000289657 
-0.000541381 -0.000742875 -0.000842412 -0.000851661 -0.000109362 -0.000696118 -0.000416122 0.000727434 -0.000705279 -0.000650697 
-0.00027157 0.0016376 0.000344484 0.00238044 0.00279884 -0.000899251 -0.00483186 -0.00566975 -0.00154718 0.00114991 
0.00433569 0.00133594 -0.00140005 -0.00250768 0.000604864 0.0023069 0.000493319 -0.00122873 -0.000502747 0.000702132 
-8.23674e-05 -3.30681e-05 0.000685904 0.000340856 -0.00105988 -0.0005858 -5.18873e-06 -0.000146007 -0.000183693 0.000274623 
-7.13068e-05 -9.5424e-05 0.00016312 7.33935e-05 8.23634e-05 0.000236631 9.10386e-05 -2.83772e-06 4.45429e-06 -0.000191643 
-0.000151949 -0.000152577 -0.000158087 -6.46601e-05 -6.18846e-05 -3.61876e-05 2.9151e-06 -1.46374e-05 3.09657e-05 3.87065e-05 
5.31314e-05 8.78053e-05 6.66561e-05 8.91583e-05 6.37052e-05 4.59758e-05 4.24157e-05 -1.04656e-06 3.60669e-06 -2.82303e-05 
-3.45701e-05 -4.95445e-05 -5.61906e-05 -6.14855e-05 -7.77544e-05 -5.4676e-05 -8.38815e-05 -4.19087e-05 -6.95772e-05 -2.91655e-05 
-3.83986e-05 -3.13513e-05 -2.63521e-05 -3.89672e-05 -4.10462e-05 -5.32699e-05 -3.65399e-05 -4.50005e-05 4.37015e-06 -1.14473e-05 
1.49559e-05 -3.90149e-05 -7.90426e-05 -0.000148159 -0.000141881 -5.82521e-05 0.000139975 0.000293307 0.000260569 -3.45158e-05 
-0.000236165 -0.000256787 -0.000399613 -0.00116694 -0.000663875 0.00058078 -0.00245481 0.00106181 0.000508467 0.000581144 
0.000314959 0.00120308 -5.97e-05 0.00230143 -1.4686e-05 0.000444031 -0.00096249 0.00254882 0.00193787 0.00227131 
-0.000817019 -0.00326845 -0.00124543 0.00166603 0.00318498 -0.000643457 -0.00202379 -0.000500986 0.00156661 -0.000172485 
-0.000627188 0.00052011 0.000705625 -0.00103764 -0.000299086 0.000886539 0.000353956 -0.000323647 0.000291857 -0.000198954 
-0.000607867 -0.000213908 -0.000176041 -0.000446802 7.89895e-06 -7.60405e-05 -0.000123264 9.99206e-05 3.83445e-05 3.30356e-05 
0.000168501 6.24415e-05 0.000103698 0.000128544 3.58443e-05 0.0001004 4.42982e-05 3.28646e-05 4.73539e-05 -1.18289e-05 
-2.20757e-06 -4.27138e-05 -7.01236e-05 -7.7231e-05 -0.00011616 -0.000104699 -0.000131586 -0.000115691 -0.000113614 -0.000116695 
-7.06166e-05 -9.91478e-05 -4.22257e-05 -5.3438e-05 -3.27251e-05 -1.85181e-05 -2.6724e-05 1.10066e-05 -2.50437e-05 2.9239e-05 
1.03055e-05 5.11677e-05 5.30748e-05 8.69269e-05 6.37371e-05 7.28815e-05 -3.48762e-06 -5.60715e-05 -0.000157129 -0.000229468 
-0.000255677 -0.00019663 -2.92697e-05 0.000223092 0.000460278 0.000658288 0.000709768 0.000743847 0.000564102 -3.21793e-05 
-0.000948613 -0.00137927 -0.000773903 -0.00129284 -0.00244272 0.0010719 -0.00137615 -0.0014699 -0.000293649 0.00059869 
0.000229017 0.00035712 0.00140246 0.000738654 0.000363675 -0.00279035 -0.00311177 -0.00346646 -0.00296041 0.000134807 
-7.00354e-05 0.00230667 0.00186289 0.00101523 -0.00175356 -0.00192465 0.000530299 0.00153893 -0.000409712 -0.00126028 
0.000847303 0.00111654 -0.000556317 -0.000375573 0.00130122 -1.97177e-05 -0.00116445 -0.000287764 0.000104288 -0.000599344 
0.000255897 0.00056157 2.30043e-05 0.000294197 0.000378126 -0.000122554 5.57916e-05 3.38016e-05 -0.000257319 -2.83064e-05 
-0.000154466 -0.00020057 -5.25098e-05 -0.000149743 -8.72201e-05 -1.36561e-05 -7.92774e-05 2.66529e-05 -4.66311e-06 -2.42991e-06 
5.41673e-05 -6.63417e-06 5.92298e-05 3.64262e-05 3.49052e-05 7.63322e-05 2.40994e-05 6.84401e-05 3.11555e-05 2.93882e-05 
2.86492e-05 -3.0128e-06 1.89566e-05 -2.80082e-05 1.98597e-05 -3.02021e-05 -3.26965e-06 -3.66851e-06 -2.24547e-05 -1.402e-05 
-2.88991e-05 -3.15224e-05 -4.29352e-05 -1.31144e-05 -9.8959e-06 6.96609e-05 0.000126095 0.000215695 0.000267946 0.000260777 
0.000135189 -7.51262e-05 -0.000379011 -0.000563282 -0.000637035 -0.000479969 -0.000259538 3.85226e-05 0.000634203 0.00104 
0.000631217 -0.000936546 -0.000864464 0.000252969 -0.00325779 -3.8627e-05 0.000186823 0.00029327 -0.000978555 -0.000144312 
-0.000246157 0.0021838 -0.00022446 0.00210655 -0.000681562 -0.000762324 0.00136059 0.00202063 0.00549158 0.0033666 
0.000268885 -0.00243152 -0.00295846 -0.000809913 0.000791784 0.00166691 0.000291715 -0.00121998 -0.000935209 0.00143 
0.00116115 -0.000628218 -0.000633478 0.00112741 -0.000140736 -0.0013582 0.000168858 0.00112187 -0.000176567 4.20454e-05 
0.000477928 -0.000518327 -0.000555061 6.10625e-05 -0.000477104 -0.000235975 0.000195374 -9.20483e-05 0.000122914 0.000300289 
1.97477e-05 0.000243006 0.000168005 3.06593e-05 0.000170364 -3.7398e-06 1.46298e-05 1.25252e-05 -9.027e-05 -2.50122e-05 
-8.12055e-05 -6.65015e-05 -2.84773e-05 -6.12347e-05 6.08567e-06 -1.83544e-05 9.34654e-06 3.64442e-05 2.25784e-06 6.64653e-05 
1.47181e-05 4.57917e-05 3.84675e-05 2.45274e-06 3.34769e-05 -1.72012e-05 -6.23365e-06 -3.4538e-05 -1.89898e-05 -5.48309e-05 
-1.68193e-05 -5.28669e-05 -2.51702e-05 -5.58587e-05 -6.71029e-05 -0.00012085 -0.000149829 -0.000204204 -0.000156629 -9.03966e-05 
0.000117909 0.00029906 0.000466995 0.000466579 0.000447193 0.000347775 0.000308515 -0.000225327 -0.00058012 -0.000290563 
0.000729821 -0.000220312 -0.00225989 0.00104294 -0.00266282 -0.00227888 -0.00165132 0.000135809 0.000726838 0.00045793 
0.00267515 0.000158734 0.000834681 0.00148482 -0.00266334 -0.000725431 -0.00301029 -0.00179975 -0.00255217 -0.00411397 
-0.0030442 0.000348932 0.00390706 0.00367265 4.20622e-05 -0.00279982 -0.00175697 0.00071591 0.00202532 0.000250022 
-0.00121123 -0.000188618 0.00119145 6.29594e-05 -0.00119087 0.000607761 0.00119141 -0.000644084 -0.000948589 0.000313183 
-0.00032031 -0.000345596 0.000746318 0.000335918 -3.672e-05 0.000534671 7.09922e-06 -0.000232977 9.4793e-05 -0.000330041 
-0.000254169 -5.62217e-05 -0.000280058 -7.55413e-05 -1.4241e-05 -0.000111442 0.000101514 1.33083e-05 6.08435e-05 0.000146638 
4.37269e-05 0.000136878 7.41422e-05 3.56638e-05 6.13896e-05 -3.10316e-05 -1.01927e-05 -5.04307e-05 -6.51999e-05 -4.93119e-05 
-7.02789e-05 -2.16628e-05 -3.45159e-05 1.40492e-05 2.42258e-05 6.48684e-05 7.12764e-05 0.000101986 0.000105092 9.31419e-05 
0.00010782 5.45093e-05 6.29742e-05 1.78256e-05 3.88432e-05 9.35093e-06 6.23571e-05 -3.679e-06 3.42022e-06 -0.000134623 
-0.000181624 -0.000251986 -0.000178705 -0.000208269 -0.000166859 -0.000206028 0.000362178 0.000692109 0.000151577 -0.000927784 
-0.000176997 0.00155364 -0.00247278 0.00117943 0.000481014 -0.000384518 -0.00170052 -0.00167863 -0.00100803 0.000548063 
-0.00178665 -0.00207171 0.001615 -0.0012197 -0.000449656 -0.000462046 0.00108439 0.00318658 0.00395336 0.00333298 
0.00275466 0.00148914 -0.00180561 -0.00411596 -0.00395205 0.000814479 0.00335142 0.00156392 -0.00159909 -0.00162778 
0.00123906 0.00150422 -0.000465013 -0.00125519 0.000737547 0.00090687 -0.00112133 -0.000902211 0.000972235 0.00050924 
-0.000303175 0.000543528 1.99376e-05 -0.000866873 -9.37095e-05 -0.000118938 -0.000482606 0.00024633 0.000178029 -1.89594e-05 
0.000480465 0.000147083 0.000119737 0.000259695 -6.85166e-05 4.71138e-05 -4.12719e-05 -0.00015389 -3.9493e-05 -0.000160441 
-9.71445e-05 -8.23732e-05 -0.000113378 -1.97109e-05 -5.8641e-05 3.91333e-06 3.47944e-05 1.37281e-05 7.10205e-05 3.3185e-05 
3.30225e-05 1.40115e-05 -8.19201e-06 -4.71994e-05 -7.64092e-05 -7.36993e-05 -0.000146292 -8.48593e-05 -0.00013259 -6.36912e-05 
-5.39888e-05 4.00329e-05 5.30315e-05 0.000142945 0.000129749 0.000152431 0.000123358 9.68841e-05 5.67432e-05 -3.55549e-06 
-9.38765e-05 -0.000178231 -7.67175e-05 0.000104542 0.000322646 -2.87692e-05 -0.000267998 0.000585402 0.0013022 0.000130521 
-0.00211745 0.00156692 -0.00271961 -0.00229356 -0.00112576 0.000240594 0.000280343 0.000242363 -0.000345897 -0.00128385 
0.000610174 0.00493586 0.00220172 0.0020672 -0.000925951 -0.00038215 -0.000671673 -0.00140863 -0.00240032 -0.00523639 
-0.00338873 -0.00213168 0.00128449 0.00334258 0.0038944 0.00248149 -0.00224454 -0.00319464 -0.000573303 0.00302987 
0.0013049 -0.00188631 -0.00127051 0.00139362 0.000903473 -0.00136583 -0.000450357 0.001516 0.000314195 -0.00106874 
-7.08494e-05 7.9748e-05 -0.00067299 0.000410057 0.000774233 -9.22237e-05 0.000346458 0.000286316 -0.000444659 -5.33503e-05 
-0.000172722 -0.000466282 -5.16539e-05 -0.000180046 -0.000140853 0.000149624 -2.80076e-05 0.000160195 0.000175707 6.39025e-05 
0.000174993 4.48241e-05 4.84847e-05 3.04896e-05 -2.41666e-05 -1.28382e-05 -5.8573e-05 -2.03278e-05 -5.86918e-05 -1.85605e-05 
2.39443e-06 -2.06403e-05 7.42178e-05 2.03497e-05 8.85328e-05 7.98138e-05 7.01251e-05 7.37248e-05 1.0443e-05 1.51765e-06 
-0.000124873 -0.000113241 -0.000264954 -0.000193913 -0.000286588 -0.000154018 -0.00014343 6.32557e-05 0.000166876 0.000393502 
0.000422496 0.000245806 -0.000146975 -0.000451826 -0.000180105 0.0001363 -0.000845295 -0.00112278 0.000385053 0.00241924 
-0.00155227 0.00222932 0.00151955 -0.000241728 -0.00155875 -0.00104701 -0.000917385 -0.000347453 0.000359569 0.00166428 
0.00256075 -0.00144478 -0.000689892 -0.00289742 -0.00397649 -0.000201645 -0.00101144 0.00238132 0.00155288 0.00243926 
0.00446154 0.00267503 0.00113219 -0.00416722 -0.00505866 -0.00416454 -0.00028223 0.00355801 0.00315349 -0.000400435 
-0.00326089 -0.000328267 0.00248142 0.000700945 -0.00199509 -0.00025847 0.00173461 -0.000254729 -0.00161181 0.000306271 
0.000894599 -0.000294808 0.000332554 0.000560872 -0.000813575 -0.000491935 0.000117962 -0.000534509 1.21946e-05 0.000497891 
-4.5943e-05 0.000391725 0.000325065 -4.33105e-05 0.000256444 -9.25219e-05 -0.000128216 -1.59861e-05 -0.000268736 -6.17395e-05 
-0.000130293 -9.72614e-05 5.8128e-05 -4.49716e-05 0.000117159 7.43977e-05 6.03103e-05 0.000113359 1.36722e-05 6.42999e-05 
-1.95827e-05 -1.5337e-05 -1.63618e-05 -7.98019e-05 -1.55986e-05 -7.52145e-05 2.79634e-07 -2.24962e-05 6.94629e-05 8.82888e-05 
0.000164403 0.000237991 0.000236317 0.000294065 0.000214583 0.000156365 -4.98279e-05 -0.000260229 -0.00048223 -0.000572724 
-0.000268326 0.000151751 0.000517398 0.000219551 -9.39591e-05 0.00109322 0.0010975 -0.000707657 -0.00232847 0.00145886 
-0.00225449 -0.00210232 -0.000564325 0.00056267 -0.000444421 -4.33907e-05 6.78382e-05 0.000308098 -0.000500337 -0.000736736 
-0.00230366 -0.000148568 0.00242392 -0.0010533 0.00231351 0.00192192 0.00105934 0.00174259 -0.0026429 -0.00176913 
-0.00307198 -0.00255627 -0.00126694 0.000715237 0.00559106 0.00578527 0.00358281 -0.00180499 -0.0040665 -0.00211614 
0.00195469 0.0029823 -0.00067251 -0.00261545 0.000250833 0.00209555 -0.000508971 -0.00173772 0.00102668 0.00131451 
-0.000791308 -0.000480978 0.000410303 -0.000783912 -0.000210338 0.00104257 0.000118297 3.56497e-05 0.000595766 -0.000371762 
-0.000327006 -5.10562e-06 -0.000523064 -8.7754e-05 2.82974e-05 -0.000182542 0.00024962 8.18678e-05 9.08155e-05 0.000222835 
-6.63707e-06 0.000111845 -3.79387e-05 -7.62785e-05 -5.36672e-05 -0.000185548 -5.3249e-05 -0.000138394 -8.63189e-05 8.30081e-06 
-6.02277e-05 3.92937e-05 1.78572e-05 4.40791e-05 2.20811e-05 2.89023e-05 2.96618e-05 -4.35781e-05 3.65165e-06 -0.000106499 
-9.517e-05 -0.000182365 -0.000170295 -0.000228735 -9.98481e-05 -1.53696e-05 0.000333433 0.000446296 0.00065936 0.000223293 
-0.00011383 -0.000470248 -0.000110483 0.000185555 -0.00124375 -0.000975606 0.00119826 0.0022411 -0.00123103 0.00214539 
0.00211824 0.000438521 -0.00122454 0.000194719 -0.000432383 -0.000500967 -0.00066785 0.000156743 0.0014834 0.000439461 
0.00150106 0.00629134 0.000922023 -0.00064229 -0.000467269 -0.00236366 -0.000793256 -0.00106536 -0.00137162 0.0015415 
0.00163204 0.00291887 0.000431662 -0.00141067 -0.00390201 -0.00660501 -0.00555935 -0.00168184 0.00385124 0.00445192 
0.000705772 -0.00304158 -0.00212243 0.00176918 0.00215193 -0.00119053 -0.00172227 0.00127116 0.00124438 -0.00158029 
-0.000741231 0.000995586 -5.94784e-05 -0.00019056 0.00108308 -0.000311366 -0.000966321 0.00017573 -0.000315435 -0.000430321 
0.00061083 8.89007e-05 0.00013648 0.000556963 -0.000183125 6.68212e-05 2.29456e-05 -0.000354798 5.12416e-05 -0.000205762 
-9.31206e-05 0.000105377 -9.51362e-05 0.000169223 8.82202e-05 6.9572e-05 0.000162618 4.96704e-05 6.79738e-05 1.17897e-05 
2.92731e-05 -1.96172e-05 -3.61393e-05 2.21157e-05 -6.2387e-05 2.38426e-06 -4.68314e-05 -2.59988e-05 -4.39471e-05 -2.14255e-06 
2.89883e-05 9.31607e-05 0.000159615 0.000125134 7.62827e-05 -0.000251798 -0.000343265 -0.000541991 -0.000148228 0.000164019 
0.000270374 -3.55191e-05 -0.000436873 0.00140773 0.000834209 -0.00161362 -0.00188443 0.00115432 -0.00190874 -0.00209168 
-0.000772546 0.00118707 -0.00104346 -0.000444962 -5.2082e-05 0.000546177 0.000721655 -0.000285028 -0.000159544 0.0019301 
0.00303944 -0.00120749 -0.00462526 -0.00346754 -0.00282248 -0.000109211 0.00126706 0.00101001 0.000435811 0.000625176 
-0.000547043 -0.000860342 -0.00173664 0.00112348 0.00400128 0.00663821 0.00718026 0.00432275 -0.000607144 -0.00510881 
-0.0039123 0.0010167 0.00354597 0.000905481 -0.00258663 -0.00115664 0.00184681 0.000936235 -0.00177513 -0.000381701 
0.00172579 5.4565e-05 -0.000808438 0.000507608 -0.000330266 -0.00104484 0.000794089 0.000643619 -0.000310937 0.000640324 
1.36678e-05 -0.000609908 0.000109864 -0.000384294 -0.000319425 0.00023868 -0.000102915 0.00019291 0.000223073 -1.10444e-05 
0.000188406 -9.74853e-05 -5.35082e-05 -6.6036e-05 -0.000167855 -1.90045e-05 -0.000116892 1.34789e-05 1.92899e-05 4.72741e-06 
7.56088e-05 5.65662e-07 5.32882e-05 -7.76315e-06 2.24476e-05 4.23452e-05 4.62399e-05 0.000107108 7.0918e-05 0.000107917 
-5.93715e-05 -3.89795e-05 -0.000184061 -7.20401e-05 7.96154e-05 0.000265843 0.000256791 7.45191e-05 -0.000330901 2.5408e-05 
0.000152186 0.000722755 -0.00159175 -0.000763648 0.00204763 0.0013021 -0.000995441 0.00170532 0.0020638 0.00109201 
-0.00153487 0.00105936 0.000396818 -0.000371715 -0.000808806 -0.0010299 0.000278689 0.00136004 0.000588069 -3.40109e-05 
-0.00114818 -0.00178075 0.00105575 0.00176441 0.00400645 0.00416161 0.00213059 0.000939103 -0.00100329 0.000252155 
-0.000262383 0.000132552 -0.000827471 -0.000881799 -0.00348774 -0.00644365 -0.00821222 -0.00669736 -0.00174408 0.00316187 
0.00571838 0.00246128 -0.00248552 -0.00332617 0.000529551 0.00278167 -6.22564e-05 -0.00204125 9.34012e-05 0.00179647 
-0.000586271 -0.00138178 0.000492533 0.000291807 -0.000685475 0.000990183 0.000617889 -0.00105656 -0.000158772 0.000137825 
-0.000704527 0.00037771 0.000465642 -0.000182456 0.000570725 1.79566e-05 -0.000211587 0.000157802 -0.000385654 -5.02964e-05 
-8.43214e-06 -0.000131977 0.000216316 3.48711e-05 0.000150513 7.20059e-05 -1.54643e-06 2.22432e-05 -0.000180415 -4.43978e-05 
-0.000116576 -0.000117783 -1.23721e-05 -6.32806e-05 9.14318e-06 -0.000105317 -1.40009e-05 -0.000152941 -8.21407e-05 -1.79473e-05 
3.01862e-05 0.000143159 9.8138e-05 1.82496e-05 -0.000144406 2.64975e-05 9.65306e-05 0.000488954 -0.000283942 -0.000362745 
-0.000939956 0.00158827 0.000751851 -0.00270036 -0.000510593 0.000718979 -0.00146034 -0.00194549 -0.00142778 0.00189318 
-0.00114711 -0.000833317 1.11259e-05 0.000253733 0.000698189 0.000157635 -0.000596144 0.000146039 0.00114126 0.000634205 
0.000458104 0.00418495 0.001524 -0.000904287 -0.00112736 -0.00421893 -0.00390436 -0.00378206 -0.00305368 -7.266e-05 
-0.000864981 0.000278992 -0.000273408 0.00223224 0.00339648 0.00625006 0.00820391 0.00849967 0.00497637 -0.00139465 
-0.00536935 -0.00535559 -0.000355675 0.00343317 0.00237501 -0.00182122 -0.00226146 0.00119287 0.00166835 -0.00105384 
-0.00130022 0.00133706 0.000670146 -0.00072083 0.00041405 0.000408186 -0.0014075 -4.35822e-05 0.00107008 -0.000345473 
0.000280467 0.000472554 -0.000694811 -8.20023e-05 -0.000102277 -0.000464704 0.000241358 -5.42383e-05 7.46076e-05 0.000329467 
-0.000127643 0.000161783 -0.000110675 -0.000181223 4.34666e-05 -0.000231027 4.28873e-05 8.77791e-05 8.70569e-05 0.000170617 
0.00012157 0.000169251 3.5686e-05 5.15196e-05 8.01736e-05 -3.28643e-05 0.000127795 -4.37758e-06 7.49292e-05 -9.58006e-05 
-1.76388e-05 -0.000129876 2.01728e-05 -2.2072e-05 -0.000221847 -0.000414939 -0.000627412 0.000343723 0.000582041 0.000869078 
-0.00150873 -0.000934327 0.00342382 -0.000536923 -0.00050664 0.00122447 0.0016413 0.0019059 -0.00232817 0.00111309 
0.00096324 -6.19717e-05 -0.000416888 -0.000831588 -0.000616842 0.00039266 0.000473534 0.000362168 0.000700499 0.00144289 
0.00272615 0.000772746 -0.00496954 -0.00310248 -0.00145201 0.000702807 0.00434843 0.00394051 0.00479537 0.0044875 
0.00191855 0.00144302 -0.000758683 -0.000441915 -0.00371388 -0.00546185 -0.00853253 -0.00864777 -0.00706787 -0.00177659 
0.00455274 0.00676753 0.00397118 -0.0018398 -0.00367323 -0.000891938 0.00261629 0.00117222 -0.00190474 -0.000859546 
0.001668 0.000399282 -0.0015391 7.26414e-05 0.000581308 -0.00104804 0.000247634 0.00140643 -0.00053683 -0.000663243 
0.000441553 -0.00055178 -0.000115529 0.00077385 -0.000167252 0.000349158 0.000305273 -0.000389408 0.000210046 -0.00022167 
-0.000208982 0.000189119 -0.000133528 0.000170659 6.88768e-05 7.94389e-05 6.24489e-05 -0.000165752 -2.08218e-05 -0.00018676 
-0.000168003 -0.00010094 -9.70371e-05 -1.77568e-05 -1.7247e-06 2.87957e-05 3.82982e-05 2.20163e-05 6.95401e-05 -2.86576e-05 
-1.38477e-05 -9.38394e-05 4.67023e-06 0.000358047 0.000605641 0.000743789 -0.000433331 -0.000794255 -0.000742342 0.00132375 
0.000941798 -0.00431062 0.00137606 0.000250639 -0.00135359 -0.0012171 -0.00265387 0.00277289 -0.00105278 -0.00106507 
-2.89075e-06 0.000304396 0.000424871 0.000264327 -0.000458008 -0.000364812 0.000174888 0.000338404 0.000608734 0.000844217 
0.000572777 -0.00349845 -0.00199288 0.00266643 0.0037421 0.00421481 0.00132803 -0.00290569 -0.00394523 -0.00509295 
-0.0051382 -0.00369969 -0.00248422 0.000602399 0.0015174 0.00502272 0.00684356 0.00947866 0.00754635 0.00394741 
-0.00239424 -0.00715896 -0.00686185 -0.00179987 0.00358827 0.00311259 -0.000672217 -0.0027167 0.000151414 0.00196838 
-9.81956e-05 -0.00171111 0.000543162 0.00117396 -0.000630358 6.87117e-06 0.0011661 -0.000858114 -0.00109369 0.00093744 
5.50339e-05 -0.000191607 0.000694997 -0.000461274 -0.00041917 0.000130555 -0.000579846 0.000119494 0.000199162 -0.000175247 
0.000351098 -9.17652e-05 -4.52502e-05 4.73223e-05 -0.000232502 3.56856e-05 -4.64987e-05 9.45137e-05 0.000112404 0.000111026 
0.00021002 7.3574e-05 4.96803e-05 -5.09754e-05 -0.000112118 -0.000139059 -0.000166918 -3.80402e-05 -8.18249e-06 0.000280401 
0.00013568 0.000224892 -0.000487648 -0.000555493 -0.000885569 0.000612833 0.000838098 0.000507419 -0.0012927 -0.000890678 
0.00504821 -0.00216182 -0.000234002 0.00155877 0.000453941 0.00331169 -0.00329414 0.000772354 0.00114659 -8.36483e-05 
-0.000329771 -0.000425083 -0.000213875 0.000148256 6.71676e-05 -0.000341986 2.77047e-06 0.000390074 0.000617481 0.000304117 
-0.000952958 -4.21675e-05 0.00279835 0.00197581 -0.000361444 -0.00297008 -0.00512206 -0.00357014 0.000151887 0.00313696 
0.00463822 0.00502617 0.00420177 0.0030087 -0.000193279 -0.00240591 -0.00580537 -0.00711385 -0.00838293 -0.00460831 
0.000530772 0.00669969 0.00867714 0.00550496 -0.000722557 -0.00444984 -0.00190537 0.00188225 0.00208096 -0.00120519 
-0.00146569 0.000933994 0.00109145 -0.00106386 -0.000487828 0.000821229 -0.000792995 -0.000755764 0.00129371 0.000396004 
-0.000776431 0.000266268 -0.000182409 -0.000452585 0.000687659 0.000103345 7.44211e-05 0.00050912 -0.000305203 -1.90799e-05 
-5.16839e-05 -0.000173117 0.000191674 -0.000141135 0.00020893 8.00061e-05 -0.000151538 2.00124e-05 -0.000191637 -0.000141992 
-0.000214973 -4.27748e-05 5.75358e-05 0.000137684 0.000302532 0.000235039 0.00015857 1.76139e-05 -0.00040987 -0.000235523 
-0.000397008 0.000472469 0.00042432 0.000827217 -0.000772907 -0.000902298 -3.61719e-05 0.00128009 0.000906109 -0.00576001 
0.00292011 0.000166437 -0.00186342 0.000260419 -0.0039297 0.00355983 -0.000428436 -0.00144659 9.22298e-05 0.000260232 
0.000402596 -7.3493e-06 -0.000355777 -0.000250415 0.00018072 0.000213041 -8.90261e-05 -8.50766e-06 0.000511992 0.000793942 
0.000635218 0.00221542 -0.000583604 -0.00294203 -0.00226411 -0.000973681 0.0024402 0.00498891 0.00530568 0.00306242 
-0.000987037 -0.00329712 -0.00458858 -0.00386523 -0.00285174 -5.32238e-05 0.00269985 0.00567761 0.00592056 0.00515393 
-7.68083e-05 -0.00558433 -0.0101278 -0.00862442 -0.00300376 0.00305293 0.00424326 0.000448747 -0.00243766 -0.000973638 
0.00163468 0.000629531 -0.00128243 -0.00019374 0.00108051 -0.000349868 -0.00040122 0.00122471 0.000132779 -0.00138987 
0.000273587 0.000378528 -0.000446592 0.000639053 -4.13717e-05 -0.00065354 0.000208033 -0.000494949 -0.000193621 0.000428502 
-0.000225646 0.000215632 0.000105874 -0.000165769 5.21443e-05 -0.000129855 0.000142522 5.1164e-05 0.000147835 0.000306255 
5.6743e-05 9.43617e-05 -0.000186489 -0.000311496 -0.000284988 -0.0002656 -6.58348e-05 0.000341965 0.000319267 0.000321714 
-0.000339545 -0.000395688 -0.000420957 0.000807913 0.00118856 -0.000737488 -0.00113344 -0.00107856 0.00646438 -0.00371798 
3.54137e-05 0.00225114 -0.00085743 0.00454768 -0.00367399 0.000100689 0.00178264 6.08769e-05 -0.000282089 -0.000447493 
-0.000112235 0.000426696 0.000169479 -0.000232344 -0.000593252 -0.000145052 0.000461582 0.000361513 0.000123758 0.000809126 
0.00136172 -0.000686324 -0.00378731 -0.00065799 0.00257405 0.00360482 0.00293578 -0.00135043 -0.00428544 -0.00624063 
-0.00578517 -0.00230717 0.000468555 0.00304056 0.00278359 0.00203293 -4.48127e-05 -0.00229245 -0.00423332 -0.00304487 
-0.000160211 0.00580834 0.0101761 0.0117031 0.00682309 -6.27725e-05 -0.00458246 -0.00321594 0.000839354 0.00218322 
-1.4237e-05 -0.00147007 0.000259358 0.000925792 -0.000435194 -0.000671962 0.000891283 -0.000251056 -0.00127323 0.00061316 
0.000907106 -0.000454295 0.000114378 0.000129057 -0.000595352 0.00036973 0.000385131 -4.81601e-05 0.00045236 -0.000116537 
-6.12611e-05 -2.17676e-05 -0.000353867 0.000167141 -7.88196e-05 -7.39382e-05 2.59239e-05 -0.000148215 -0.00014559 -0.00015714 
-0.000140001 8.73512e-05 0.000217175 0.000236229 0.000163188 0.000120442 -0.00024195 -0.000233343 -0.000103497 0.000348933 
0.000433469 -0.000118837 -0.00085355 -0.00156151 0.00158694 0.000989263 0.0012208 -0.00683536 0.00448394 -4.51219e-05 
-0.00275847 0.0016658 -0.00521445 0.00405616 0.000293723 -0.0017566 -0.000208998 0.00055505 0.000612801 0.000466221 
-0.000427303 -0.000331882 -4.69671e-05 0.000401898 0.000290637 -0.000525978 -0.000305732 0.000401614 0.000319828 0.000339279 
7.28213e-05 -0.00249615 -0.000819998 0.00343338 0.00253804 -0.00044178 -0.00380035 -0.00491452 -0.000796136 0.00291868 
0.00634588 0.00743014 0.00545458 0.0031529 -0.000152024 -0.000889183 -0.000694335 0.000371652 0.00130342 0.00141089 
-0.00133573 -0.00575369 -0.0112707 -0.0131348 -0.0108101 -0.00353722 0.00299618 0.00495707 0.00186917 -0.00155507 
-0.00138775 0.000471008 0.000833634 -0.000658493 -0.000288015 0.000696498 -0.000121693 -0.000717869 0.000646554 0.000884327 
-0.000843593 -0.00055226 0.000350587 -0.00037644 0.000227588 0.000334707 -0.000580199 -4.34472e-05 -0.000105614 -0.000354749 
0.000221386 4.59784e-05 0.000279629 0.000188205 -1.44592e-05 0.000227506 -5.07076e-05 0.000107861 -3.12484e-05 0.00011783 
-3.14994e-05 -0.000125421 -8.56856e-05 9.57955e-05 6.27995e-06 0.000216376 6.36902e-05 -0.000153321 -0.000556833 -0.000485493 
0.000541624 0.00104363 0.00181009 -0.00221016 -0.00098224 -0.000986539 0.00665918 -0.00503161 -0.000292665 0.0035204 
-0.00267659 0.00620247 -0.00445591 -0.000482282 0.00186725 0.000656161 -0.000361902 -0.000449019 -0.00038677 0.000508691 
0.000755592 0.000295242 -0.000207076 -0.000627411 0.000158444 0.000291627 -0.000172055 0.000172199 0.00017338 8.20223e-05 
-0.000683302 -0.000640036 0.00191157 0.00161209 -0.00182419 -0.00299196 -0.00168862 0.00256898 0.00587371 0.00360213 
-0.000493561 -0.00543493 -0.00818612 -0.00786827 -0.00667579 -0.00357952 -0.00181264 -0.000993554 -0.000672852 0.000182626 
0.00235063 0.00654651 0.0112725 0.0149272 0.013308 0.00750194 -0.000620189 -0.00506182 -0.004421 -0.000642223 
0.00139232 0.000755545 -0.000399259 -1.67639e-05 0.000269744 -0.000176939 -0.000413425 0.000614356 0.000336973 -0.000905246 
-0.000128708 0.000613554 0.000254037 0.000210326 6.80272e-06 -0.000348995 0.000285185 0.000106243 -0.000120662 0.000505246 
-0.0001251 -0.000324564 -4.32409e-05 -0.000371927 -0.000138312 -0.000140113 6.88597e-06 0.000144147 1.80054e-05 0.000136546 
5.43425e-05 3.91896e-05 -0.000353099 -0.000269369 -0.000286237 4.2545e-05 0.000425219 0.000766605 0.000610709 -0.00084936 
-0.00119683 -0.00191166 0.00264159 0.000996433 0.000332526 -0.0061185 0.00547117 0.000809632 -0.00425954 0.00376993 
-0.00724731 0.00471151 0.000886124 -0.00209039 -0.00077584 0.000140038 0.000644422 0.000570278 3.69295e-05 -0.000579699 
-8.20734e-05 0.000369446 0.000785707 0.000138759 -0.000396178 4.53022e-05 -0.000177588 0.000252794 0.000405676 0.000108169 
-4.96414e-05 0.00090033 0.000279738 -0.00168942 -0.00167051 0.000787784 0.0029251 0.00315352 -0.000598071 -0.00533763 
-0.00590374 -0.0028789 0.00285509 0.0075782 0.00912175 0.00931673 0.00716796 0.00487469 0.00280636 0.000764986 
-0.00207792 -0.00620708 -0.0113533 -0.0147998 -0.0154496 -0.0100351 -0.00244168 0.00474101 0.00587087 0.00355612 
-6.76172e-06 -0.000688581 -0.000689679 -0.000187846 -0.000118747 0.000370188 0.000368989 -0.000396421 -0.000365452 0.000119157 
0.000428437 -4.47271e-05 -0.000356811 -0.000245864 -0.000323448 0.00011416 0.000302415 -0.000138106 3.67341e-06 -9.62227e-05 
-8.40517e-05 0.000350147 4.84527e-05 0.000257835 0.000246418 -3.6216e-05 -4.53754e-05 -0.000282162 -3.7734e-05 -0.00016044 
7.12144e-05 0.000312182 0.000603336 0.000222098 7.8767e-06 -0.000750139 -0.000762838 -0.000805939 0.00120106 0.00108044 
0.00189487 -0.00311045 -0.000872035 0.000574779 0.00553926 -0.00596136 -0.00118738 0.00470884 -0.00486478 0.00814149 
-0.00473588 -0.00160751 0.00246023 0.000727095 6.89391e-05 -0.000699379 -0.000671205 -0.000278613 0.000509658 0.000411342 
-0.000151526 -0.000260457 9.43988e-05 0.000607761 7.72046e-05 0.000136438 -0.00012582 -0.000119539 0.000431483 0.000353108 
0.000559425 2.6695e-06 -0.00194843 -0.0008047 0.00180229 0.00247211 0.000435565 -0.00262243 -0.00416275 -0.00150538 
0.00368406 0.00677376 0.00606112 0.00110019 -0.00505259 -0.00869282 -0.0104274 -0.00963191 -0.00738395 -0.00436 
-0.000547476 0.00407018 0.00921569 0.0141099 0.0149214 0.0119976 0.00375937 -0.0033998 -0.00770568 -0.00576136 
-0.00279437 -0.000303692 0.000393625 0.00109345 0.000836845 -0.000747964 -0.000873014 0.000276844 0.000555093 -0.000157858 
-0.000286011 0.000212551 -0.000239049 -9.95807e-05 0.000808068 0.000129729 -0.000718529 9.59685e-05 0.000105982 -0.00025558 
9.93152e-05 -5.8408e-05 -5.6918e-05 -0.000117724 -7.26616e-05 0.000150689 7.91629e-05 0.000209513 -7.91759e-05 -0.000123865 
-0.000247916 -0.000775023 3.25159e-05 -7.94763e-05 0.00117678 0.000504316 0.000956857 -0.00170016 -0.000747825 -0.00169647 
0.00367683 0.000703218 -0.00170172 -0.00493788 0.00635344 0.00132726 -0.00508242 0.00616675 -0.00907112 0.00474632 
0.00242478 -0.00275222 -0.000920707 -4.41148e-05 0.000399072 0.000766686 0.000244063 -0.000374816 -0.000726449 0.000109431 
0.000203943 -7.20884e-05 -0.000238729 0.000202911 0.000303857 0.00033971 0.0001981 -0.000191803 0.000168911 0.000232256 
0.000305145 -0.00135288 -0.00136024 0.00190365 0.00221589 -0.000604312 -0.00299364 -0.00218724 0.00153473 0.00474599 
0.00368849 -0.00134545 -0.00624692 -0.00816306 -0.00540441 0.000691563 0.00610761 0.00940505 0.0102165 0.00833666 
0.00508797 -3.85512e-05 -0.0055299 -0.0104849 -0.0133077 -0.0109037 -0.00466702 0.00393859 0.00874147 0.00882462 
0.00535643 0.00257116 0.00102092 -0.000910636 -0.00200346 -0.000351979 0.00175814 0.000980749 -0.00124923 -4.44388e-05 
0.000981628 -0.000407024 -0.000236498 0.000928687 -0.00037911 -0.000785756 0.000592476 0.000249924 -0.000275503 0.000363596 
-0.000156696 -0.000222863 4.34708e-05 -0.00042325 0.000317831 -0.000325004 -5.15535e-05 0.000435012 7.2369e-05 0.00054601 
0.000480103 2.77094e-05 -0.000388657 -0.00130056 -0.000484184 -0.000682543 0.00205583 0.000638009 0.00108772 -0.00406093 
-0.000823192 0.00313546 0.00400207 -0.00641345 -0.00135886 0.00584773 -0.0079109 0.0103061 -0.00490648 -0.00327229 
0.00278187 0.0014416 -0.000208736 -3.76544e-05 -0.000790999 -0.000365842 0.000201279 0.000670611 -0.000137495 -0.000642645 
-2.78591e-05 4.32839e-06 -0.000158822 -0.000110823 -0.000149458 0.000275704 0.000605948 0.000154422 0.000124732 -2.53456e-05 
-0.00018995 -0.0013099 0.000489199 0.00219671 -0.000405178 -0.00253672 -0.00117483 0.00228704 0.00364708 0.000578849 
-0.00422154 -0.00565892 -0.00171646 0.00438227 0.00873428 0.00897081 0.00458851 -0.0013983 -0.00590121 -0.00837176 
-0.00710993 -0.00439372 0.000952324 0.0057915 0.00914403 0.00838452 0.00302608 -0.00489366 -0.0110407 -0.0119571 
-0.0084901 -0.00487077 -0.00315774 -0.000818469 0.00217862 0.00284044 -0.00131388 -0.0027809 0.000248971 0.00145721 
-0.00101306 -0.000975789 0.000939165 -0.000112618 -0.00105092 0.000779185 0.000478802 -0.000496037 0.000343602 -7.34583e-05 