# vtk DataFile Version 2.0
Titre
ASCII
DATASET STRUCTURED_POINTS
DIMENSIONS 100 100 1
ORIGIN 0.0 0.0 0.0
SPACING 0.1 0.1 0.0
POINT_DATA 10000 
SCALARS rho float
LOOKUP_TABLE default
-5.29717e-06 -0.000299053 -0.000423515 -0.000968139 0.000602207 0.000962157 -7.43914e-05 -0.000128828 -1.29682e-05 -0.000166963 
-0.000179823 0.000156169 0.00062745 0.000516195 -4.19007e-05 -0.000631534 -0.001002 -0.000742143 0.000336283 0.00154967 
0.0016992 0.000671363 -0.000410211 -0.000623833 -0.000170848 0.000122903 -5.92374e-05 -0.000439846 -0.000610892 -0.000399112 
-4.98621e-05 7.45716e-05 -7.32525e-05 -0.000356698 -0.000667119 -0.000918044 -0.00111771 -0.00135215 -0.00169004 -0.00213856 
-0.00266065 -0.00315077 -0.00347615 -0.0035218 -0.00318163 -0.00238234 -0.00109022 0.000698732 0.0029153 0.0054107 
0.0079197 0.0100554 0.011335 0.0112492 0.00938416 0.00558064 9.10313e-05 -0.00631331 -0.012365 -0.0164862 
-0.0171882 -0.0135793 -0.00587559 0.00430902 0.0141443 0.0203042 0.0201285 0.0129294 0.000746916 -0.011931 
-0.0196998 -0.0185961 -0.00832548 0.00697069 0.0201142 0.0243866 0.0173467 0.00266 -0.0116434 -0.017706 
-0.0127667 -0.00105579 0.0090869 0.0111341 0.00503165 -0.00336012 -0.00718592 -0.00437371 0.00127767 0.00409195 
0.00207025 -0.00164229 -0.00281806 -0.000798459 0.0013721 0.0012366 -4.7262e-05 -0.000418785 8.41061e-05 -0.000372669 
-0.000789554 0.000272916 8.93774e-05 0.000592513 0.00106165 -0.000602882 -0.000757569 -3.29403e-05 0.000268106 0.000323246 
0.000140205 0.000387382 0.000348297 -0.000242141 -0.000642816 -0.00072888 -6.40972e-05 0.00150155 0.00269218 0.00164095 
-0.00119788 -0.00297657 -0.00219291 -0.000192602 0.000732377 0.000129679 -0.000755147 -0.000918928 -0.00028794 0.000453733 
0.000584819 0.000199944 -0.000155725 -0.000297316 -0.000233195 -9.58589e-05 -0.000100481 -0.000365991 -0.000858939 -0.00152684 
-0.00231483 -0.00318161 -0.00418294 -0.00537806 -0.00676614 -0.00828505 -0.00970422 -0.0106912 -0.0108169 -0.00964678 
-0.00684125 -0.0022851 0.00380616 0.010776 0.0175333 0.0226323 0.0245298 0.0219763 0.0144802 0.00276297 
-0.0110563 -0.0236329 -0.0311467 -0.0304677 -0.0205269 -0.00329965 0.0161348 0.0308789 0.0347107 0.0249831 
0.00457515 -0.0183893 -0.0336079 -0.0334674 -0.0174379 0.00671301 0.0263571 0.0308417 0.0180086 -0.00401257 
-0.0214949 -0.0240185 -0.0114672 0.00597819 0.0156455 0.011906 0.000107935 -0.00873007 -0.00778005 1.86985e-05 
0.00593457 0.00462386 -0.000811949 -0.00356811 -0.00141935 0.00159684 0.00133352 -0.00036733 -0.000455051 -0.000153811 
0.000888697 0.000600463 -0.000337477 0.00023017 -0.000919248 -0.00093585 0.000727707 0.00104531 0.000564119 -1.03739e-05 
8.0659e-05 0.000374509 -0.000308728 -0.000774087 -0.000733754 -0.00028985 0.00102622 0.00208872 0.000961065 -0.00180343 
-0.00262679 -0.000199832 0.00261855 0.00271854 0.000397467 -0.00141991 -0.00128969 -7.31386e-06 0.0010343 0.00101454 
0.000352573 0.000108361 0.000437576 0.000934717 0.00137091 0.00157879 0.0015893 0.00159399 0.00171902 0.00192502 
0.00211615 0.00207798 0.00155918 0.000443765 -0.00134245 -0.00374583 -0.00659779 -0.00968513 -0.0126694 -0.0151436 
-0.0166045 -0.0165001 -0.0143244 -0.00976341 -0.00286664 0.00576373 0.0149058 0.0227651 0.0272755 0.0266061 
0.0198191 0.00749129 -0.00797575 -0.0226166 -0.0318606 -0.0320846 -0.0222501 -0.00494568 0.0139162 0.0270167 
0.0287066 0.0179459 -0.000483032 -0.0176801 -0.024837 -0.0181505 -0.00141217 0.0156018 0.0227749 0.0159502 
-7.46002e-05 -0.0146046 -0.0182454 -0.00961708 0.00392539 0.0120469 0.00961778 0.000396278 -0.006872 -0.00647508 
-0.000583952 0.00395496 0.00294458 -0.000952713 -0.00251875 -0.000444152 0.00158037 0.000672263 9.9334e-05 9.10742e-05 
-0.000435485 -0.00160635 -0.000269598 0.000240436 1.59067e-05 0.00149783 0.00127878 -0.000175737 -0.000721083 -0.000257764 
0.000405634 -0.000201355 -0.000969945 -0.000684023 -0.00034509 0.000723647 0.00218489 0.0017274 -0.000794789 -0.00190937 
0.000178393 0.00216171 0.000986538 -0.00216853 -0.00345272 -0.00164574 0.000832759 0.00193797 0.00146775 0.000441097 
0.000215942 0.000890002 0.0014891 0.00179161 0.00197123 0.00223065 0.00278248 0.00365677 0.00466483 0.005612 
0.00633996 0.00667674 0.00659264 0.00609786 0.00510138 0.00357709 0.00136773 -0.0016084 -0.00534025 -0.00963487 
-0.0140535 -0.0179106 -0.0203654 -0.0205336 -0.0177314 -0.0117181 -0.00291263 0.00742725 0.0173314 0.024362 
0.0262958 0.0218155 0.0113061 -0.00285487 -0.0165628 -0.0251493 -0.0250716 -0.0156722 -3.25073e-05 0.015655 
0.0245289 0.022251 0.00969244 -0.00693092 -0.018788 -0.0193102 -0.00824618 0.00759885 0.0182686 0.016925 
0.00458596 -0.0103677 -0.0179706 -0.0137535 -0.00187757 0.00851297 0.0104036 0.00437021 -0.00305674 -0.00538893 
-0.0020375 0.00235348 0.00312452 0.000412196 -0.00200992 -0.00142181 0.00070777 0.000630291 -0.00015823 -0.000599282 
-6.22412e-05 0.00113477 0.00220061 0.000712674 0.00038731 0.00014968 -0.00124406 -0.000902466 0.000409269 0.00101199 
0.000125665 -0.00101121 -0.000680307 -0.000237067 0.000219772 0.00187278 0.00212743 -0.000357388 -0.00231643 -0.000796923 
0.00150347 0.00103234 -0.00114201 -0.00156679 0.000844307 0.00289948 0.00248541 0.000792177 -0.000541845 -0.000620761 
0.000371265 0.0010418 0.00104738 0.00112666 0.00152376 0.00225565 0.00319348 0.00419742 0.00522073 0.00636182 
0.00769443 0.00926721 0.0111226 0.0130341 0.0146935 0.0156965 0.0155058 0.0137438 0.0100681 0.0044183 
-0.00297412 -0.0114811 -0.0200528 -0.0272539 -0.031457 -0.0311343 -0.0253052 -0.0140233 0.00129056 0.0177178 
0.0313033 0.0379191 0.0346665 0.0212039 0.000625125 -0.0208742 -0.0356774 -0.0376701 -0.0251449 -0.00251826 
0.0207794 0.0340713 0.0307953 0.0124908 -0.0111213 -0.0269452 -0.0260162 -0.00932982 0.0121842 0.024499 
0.0197664 0.00202216 -0.0157984 -0.0212556 -0.011861 0.00375273 0.0130781 0.010357 0.000338049 -0.00692444 
-0.00589844 0.000223141 0.00405901 0.00251163 -0.00117028 -0.00235979 0.000190049 0.00121307 0.000831755 0.000264313 
0.000564592 0.000617233 -0.00101141 -0.00204842 -0.000755224 -0.000231788 0.000475335 0.00161432 0.00105228 -0.0005382 
-0.00154342 -0.000933659 -0.000278575 -0.000372113 0.00111051 0.00252068 0.000505325 -0.00206782 -0.0011564 0.00166294 
0.00195116 -0.000142492 -0.00150852 -0.000476947 0.000789145 -0.000109348 -0.001439 -0.00149079 -0.000663026 0.000414135 
0.000782372 1.26457e-05 -0.000636026 -0.000740831 -0.00070464 -0.000725034 -0.000764568 -0.000619777 -0.000129586 0.000854843 
0.00240037 0.00456895 0.00737398 0.0106598 0.0143932 0.018265 0.0219765 0.0250302 0.0267414 0.0263799 
0.0232037 0.0167321 0.00695674 -0.00543354 -0.018941 -0.031276 -0.0397353 -0.0416784 -0.0354376 -0.0210105 
-0.000750807 0.0207758 0.0375664 0.0439794 0.0368638 0.0174132 -0.0083079 -0.0309062 -0.0411197 -0.0340819 
-0.0123813 0.0142381 0.0329175 0.0343456 0.0181722 -0.00602586 -0.0240074 -0.0253397 -0.0104839 0.00957087 
0.0205174 0.0151288 -0.00174441 -0.0168282 -0.0190649 -0.00786441 0.00677987 0.0134185 0.00848392 -0.0013877 
-0.00669544 -0.00401227 0.00163816 0.00369062 0.00126484 -0.00222718 -0.00152287 0.000255893 0.000384785 0.00021697 
0.000317956 -0.000449515 -0.000303985 0.00138668 0.00258514 0.00155813 0.000591792 -0.000744323 -0.00190675 -0.00148968 
-0.0001816 0.000196757 -0.000566043 0.000419343 0.0028548 0.00175938 -0.00159389 -0.00169951 0.00102932 0.0020122 
6.84331e-05 -0.00184242 -0.00153813 0.000388135 0.000859372 0.000159906 0.000372161 0.000581527 5.78709e-05 -0.000794005 
-0.00224123 -0.00345285 -0.00369958 -0.00397541 -0.00466717 -0.00556972 -0.00637862 -0.00710772 -0.00780122 -0.00828491 
-0.00841124 -0.00788872 -0.00648706 -0.00396793 -9.1485e-05 0.00508575 0.01154 0.0187418 0.0260503 0.0324587 
0.0367961 0.0378653 0.034619 0.0265052 0.0137078 -0.00251114 -0.019842 -0.0349542 -0.0442774 -0.0446816 
-0.0348599 -0.0160366 0.00744996 0.0290368 0.0416134 0.0403092 0.0247971 0.000508288 -0.0229705 -0.0354508 
-0.0312679 -0.0124599 0.0112609 0.0273639 0.0272716 0.0119082 -0.00872416 -0.0213637 -0.0185657 -0.00357978 
0.0118455 0.016309 0.00723733 -0.00737334 -0.0158025 -0.0120085 -0.00022006 0.00955423 0.0102041 0.00320115 
-0.00388694 -0.00497385 -0.00100217 0.0023037 0.00250449 -0.000499136 -0.00139894 4.64598e-06 0.000596097 -8.22767e-06 
1.95235e-05 0.000171157 0.000819962 0.000626807 -0.00122416 -0.00275347 -0.00223113 -0.000994172 0.000693215 0.00146011 
0.000310757 -0.00148387 -0.000680779 0.00242792 0.00256757 -0.0011639 -0.00234284 0.000190998 0.0018864 0.000755087 
-0.00120723 -0.00166879 3.50243e-06 0.00126731 3.05719e-05 -0.00100119 -0.00133449 -0.00226083 -0.00277535 -0.00293448 
-0.00343666 -0.00341012 -0.00359009 -0.00476791 -0.00636022 -0.00803713 -0.00990219 -0.0122582 -0.0148047 -0.0172509 
-0.019525 -0.0213097 -0.0225118 -0.0227321 -0.0216642 -0.0188733 -0.013987 -0.00690264 0.00239303 0.0133137 
0.0249543 0.0358141 0.0440457 0.047676 0.0450183 0.0352207 0.0187711 -0.00213845 -0.0236636 -0.0408469 
-0.0488649 -0.0445203 -0.027923 -0.00312586 0.0222118 0.0393283 0.0414274 0.027357 0.00270377 -0.0215304 
-0.0339821 -0.0285699 -0.00851228 0.014898 0.0281906 0.0240357 0.00591745 -0.0137199 -0.0219254 -0.0143812 
0.00171632 0.013243 0.0116979 -0.000362756 -0.0120209 -0.0135355 -0.00449063 0.00684438 0.0113776 0.00687991 
-0.000999525 -0.00487582 -0.00243216 0.000992928 0.00256308 0.000445007 -0.00153909 -0.000839899 0.000384705 0.000284253 
9.85508e-05 0.000423001 -0.000142718 -0.000870752 -0.000844074 0.00106151 0.00278394 0.00268102 0.000906623 -0.00178812 
-0.00318052 -0.00151407 0.00224076 0.00312164 -0.000130813 -0.0021425 -0.000114029 0.00166322 0.00126259 -0.000303845 
-0.00166329 -0.0010878 0.000801198 0.000304295 -0.0012861 -0.000923968 -0.000732395 -0.000931786 -0.000596933 -0.00114722 
-0.00196713 -0.00221328 -0.00314416 -0.00431298 -0.00527305 -0.00634091 -0.00794557 -0.0100133 -0.0121746 -0.0149027 
-0.0183687 -0.0224967 -0.0272924 -0.0321132 -0.0365404 -0.0396769 -0.0408676 -0.0392235 -0.034116 -0.0252232 
-0.0125788 0.00295997 0.0199793 0.0361632 0.0488274 0.0550416 0.0526126 0.0405295 0.0200695 -0.00522756 
-0.0295478 -0.0463238 -0.0500665 -0.0387118 -0.015225 0.0126131 0.0344067 0.04139 0.0306306 0.00722487 
-0.0173538 -0.0307257 -0.02634 -0.00762881 0.0136308 0.0242844 0.0184535 0.0013171 -0.0143174 -0.017776 
-0.00808544 0.00542092 0.0113921 0.00584983 -0.00503688 -0.0110656 -0.0072687 0.00225366 0.00936268 0.00890185 
0.00275315 -0.00327324 -0.00350515 -0.0009184 0.00181278 0.00166663 -0.000276184 -0.000966822 -0.00018627 0.000166584 
6.07722e-05 -7.59497e-05 -0.000750247 -1.17449e-05 0.000813732 0.000965672 -0.00103288 -0.0030817 -0.00392508 -0.00267878 
0.000134174 0.00280477 0.00320104 0.000587669 -0.00124377 -0.000408935 0.00067094 0.000612475 0.000410173 -0.00106564 
-0.0019973 -2.9864e-05 0.00120334 -0.000546795 -0.000676503 0.00028469 -0.000404089 -0.000529648 -0.000340326 -0.00060458 
0.000473359 0.00173368 0.00224886 0.00304277 0.00379864 0.00428231 0.00434698 0.00428635 0.00363594 0.00155708 
-0.00162159 -0.00613384 -0.0118447 -0.0185032 -0.0261113 -0.0340617 -0.0418966 -0.0484966 -0.0529229 -0.0538474 
-0.0502458 -0.0414387 -0.0273063 -0.00887015 0.0120104 0.0321455 0.0479479 0.0555544 0.0524594 0.0380164 
0.0148644 -0.0116116 -0.0338404 -0.0448299 -0.0404777 -0.0222884 0.00284305 0.0243897 0.0332191 0.0257514 
0.00669323 -0.0133029 -0.0230453 -0.017843 -0.00216023 0.0127547 0.0168959 0.00825784 -0.00551769 -0.0135694 
-0.0103882 -0.00019174 0.00728081 0.0058354 -0.00181621 -0.00750726 -0.00548396 0.00171872 0.00769359 0.00814595 
0.00442258 -0.000746802 -0.00217925 -0.0014517 0.000131628 0.000796623 0.000256212 -0.000379269 -0.000259987 -5.88095e-05 
-0.000156832 -0.000363212 -0.000220286 0.00082494 0.000106886 -0.000853198 -0.00129013 0.000477565 0.00199969 0.00264857 
0.00172079 0.000629607 -5.62009e-05 -0.000365725 -0.000280334 -0.000837447 -0.000526672 0.00121132 0.000870804 -0.00196137 
-0.0011869 0.00176632 0.000846903 -0.000680315 0.000828309 0.000938805 0.000590216 0.00213972 0.0031727 0.00452339 
0.00669265 0.00765045 0.00884963 0.0109303 0.0133474 0.0160453 0.0187705 0.0215812 0.0235114 0.0246318 
0.0252612 0.024409 0.0221103 0.0175426 0.0105503 0.00122253 -0.0101994 -0.0228779 -0.0359161 -0.047708 
-0.0568188 -0.0613589 -0.0599782 -0.051689 -0.0365383 -0.0158763 0.00755826 0.0296184 0.0456685 0.0514218 
0.0448218 0.0268204 0.00245992 -0.0208537 -0.0349164 -0.0349438 -0.021203 -0.000399189 0.0177187 0.0244557 
0.0174232 0.00169136 -0.0124888 -0.0164756 -0.00860693 0.00441224 0.012364 0.00939397 -0.00144696 -0.0105554 
-0.0103235 -0.00175675 0.00655936 0.00662263 -0.000555874 -0.00716545 -0.0056842 0.00208002 0.00834197 0.00784045 
0.00381762 -0.000814969 -0.00157965 -0.000687545 0.000118086 0.000147336 -2.56569e-05 -0.000110239 -5.48076e-05 -0.000180085 
-0.000307642 -0.000118275 0.000331756 0.000352056 -0.000902043 -0.000361072 0.000668825 0.000883413 -0.00174566 -0.00375849 
-0.00360707 -0.000319797 0.00214104 0.0013615 -0.00119447 -0.00140974 0.00213087 0.00309784 -0.00123437 -0.00299162 
0.00110025 0.00215718 -0.000475873 0.000428099 0.00211537 0.00135035 0.00261957 0.00437651 0.00492521 0.00678007 
0.008423 0.00992562 0.0131666 0.0166971 0.0204169 0.0241506 0.0281334 0.0325001 0.0366205 0.0414034 
0.0459724 0.0494773 0.0519536 0.0522136 0.0504528 0.0458303 0.0381898 0.0273608 0.0135934 -0.00231001 
-0.0193182 -0.0355025 -0.0491733 -0.057797 -0.0597315 -0.0533875 -0.038991 -0.0181052 0.00545608 0.0266301 
0.040006 0.0416913 0.0312101 0.0120745 -0.00854527 -0.0228137 -0.0252974 -0.0160634 -0.000792648 0.0118809 
0.0152281 0.00838633 -0.00303308 -0.0104723 -0.00890528 -4.99203e-05 0.00809878 0.00840561 0.000230572 -0.00911338 
-0.0108324 -0.00337124 0.0063938 0.00848701 0.00165519 -0.00671595 -0.00706482 0.00150873 0.0100526 0.00952391 
0.00396975 -0.00166016 -0.00202907 -0.000320926 0.00028426 -0.000402474 -0.000663496 -0.000155957 0.000268909 -6.11748e-05 
-0.000276788 0.000205203 0.000223441 -0.000337356 -0.000447135 0.000922597 0.000464502 -0.00158166 -0.00301058 -0.000209939 
0.003942 0.00637555 0.00321679 -0.00169973 -0.00281167 0.00116968 0.00348696 -0.000990592 -0.00450357 -0.000356307 
0.00323931 0.000486041 -0.000177068 0.0025409 0.00210937 0.00187004 0.00406531 0.00442996 0.00521991 0.00702254 
0.00753167 0.00903707 0.0107188 0.0116368 0.0132176 0.0150955 0.0181915 0.0219465 0.0264245 0.0324383 
0.0384019 0.0450543 0.0519052 0.0581941 0.0637564 0.0670373 0.0678508 0.0651599 0.0588545 0.0486649 
0.0349235 0.0183289 -0.000103154 -0.0183259 -0.03449 -0.0455774 -0.0497171 -0.0450493 -0.0322726 -0.0135841 
0.00616884 0.0217447 0.0283959 0.0247644 0.013001 -0.00100176 -0.0110265 -0.0128247 -0.00720254 0.00121587 
0.00617547 0.00469067 -0.00167447 -0.0068568 -0.00604885 0.00112593 0.00874249 0.00963821 0.00177576 -0.00930161 
-0.013282 -0.00631414 0.00613248 0.0116886 0.00511277 -0.00619851 -0.0102479 -0.00201025 0.0105532 0.0121048 
0.00467 -0.0038193 -0.00443644 -0.000346728 0.00141287 -0.000225415 -0.00152446 -0.000843986 0.000357958 0.000198864 
-0.000227174 0.000222079 -6.4025e-05 -0.000258471 0.000516853 0.000671664 -0.00128378 -0.00240399 -0.000795099 0.00211868 
0.0019962 -0.000762138 -0.00473079 -0.00449944 -0.000384901 0.00288968 0.000512599 -0.00288897 -5.07204e-05 0.00394594 
0.00166302 -0.000665066 0.00188508 0.00216248 0.000385243 0.00191365 0.00244949 0.00124575 0.0017161 0.000576285 
-0.00119113 -0.00182685 -0.00392262 -0.00533702 -0.00620079 -0.00732125 -0.00751203 -0.00771187 -0.00623409 -0.00317542 
0.000812858 0.00741011 0.014951 0.0238415 0.0331727 0.0422049 0.0506968 0.0572994 0.0618169 0.0630665 
0.0609682 0.0547472 0.044657 0.0307877 0.0141837 -0.00329741 -0.0193312 -0.0306561 -0.0351968 -0.0314972 
-0.0212378 -0.00740397 0.00487038 0.0120816 0.0123046 0.00769218 0.0018842 -0.000946309 0.000168978 0.00337358 
0.0044999 0.00119938 -0.00549799 -0.0106979 -0.0094729 -0.00110438 0.00954796 0.0137444 0.00749365 -0.00610309 
-0.0153597 -0.0117444 0.00255835 0.0145077 0.011464 -0.00229661 -0.0120219 -0.00775201 0.00844077 0.0154727 
0.00831168 -0.00440387 -0.00859848 -0.00294394 0.00196125 0.000670084 -0.0019338 -0.00173626 4.99855e-05 0.000377621 
-0.000233712 0.000123592 1.85652e-05 0.000162582 0.000702902 -0.00053148 -0.00173658 -0.00102254 0.000727289 0.000918047 
-3.77201e-05 0.000163642 0.000828235 0.00275552 0.00360157 0.00255331 0.000148659 7.3915e-05 0.00131507 -0.000355334 
-0.00193318 0.000571089 0.00136717 -0.00120037 -0.000629442 0.000220382 -0.00249459 -0.00375901 -0.00536489 -0.00967425 
-0.012326 -0.0161295 -0.0214986 -0.0257023 -0.0318124 -0.0378033 -0.0428094 -0.0473248 -0.0492701 -0.0504257 
-0.0494141 -0.0457764 -0.0408913 -0.0330909 -0.0239874 -0.0131202 -0.00179411 0.00926488 0.0197405 0.028706 
0.0364798 0.0419451 0.0453233 0.0450583 0.041233 0.0329186 0.0212611 0.00774055 -0.00488952 -0.0138392 
-0.0176086 -0.0161308 -0.011697 -0.00692739 -0.00398968 -0.00288102 -0.00187472 0.000969884 0.00599452 0.0106144 
0.0114331 0.0059119 -0.00377892 -0.0127293 -0.014257 -0.00690521 0.00612577 0.0152088 0.0134919 0.00071363 
-0.0137965 -0.0167303 -0.0050229 0.0125357 0.0172732 0.00421863 -0.01074 -0.0140245 0.00180352 0.0157439 
0.0125015 -0.00255416 -0.0119282 -0.0071198 0.00149945 0.00197199 -0.00212184 -0.00285969 -0.000475772 0.000465449 
-0.000251555 0.0001719 0.000304898 0.000274079 0.000285552 -0.00117112 -0.00102114 -0.000575762 -0.000335466 -0.000477667 
0.00114482 0.00200492 -0.000188218 -0.00219668 -0.0023536 -0.00114071 -0.00143517 -0.00237503 -0.00252034 -0.000472362 
0.00273674 0.00225754 -0.00179249 -0.00204391 -0.000849916 -0.00464205 -0.00772299 -0.00877551 -0.0140278 -0.0188729 
-0.0223715 -0.0295983 -0.0356538 -0.0418168 -0.0499349 -0.0556372 -0.0616646 -0.0672887 -0.0717507 -0.0764763 
-0.0782339 -0.0787515 -0.0768837 -0.0719582 -0.0657078 -0.0573295 -0.0489904 -0.0400826 -0.0316374 -0.0233271 
-0.0148866 -0.0063554 0.00298823 0.0120021 0.020616 0.0263835 0.0290358 0.0270957 0.0220865 0.0149569 
0.00817662 0.00231589 -0.00222651 -0.00683849 -0.0112842 -0.0150225 -0.0148969 -0.00964789 0.00104893 0.0120164 
0.0182711 0.0146365 0.00325848 -0.0104124 -0.0172775 -0.0135047 -0.00085051 0.0125262 0.0167398 0.00909784 
-0.00690416 -0.016827 -0.0123527 0.00516989 0.0194564 0.0122189 -0.00476756 -0.0162753 -0.00610879 0.0130245 
0.0164861 0.00136714 -0.0136773 -0.0125382 -0.000743403 0.00384556 -0.00119167 -0.00419025 -0.001527 0.000461687 
-9.75559e-05 0.000291795 0.000451374 6.24231e-05 -3.33661e-05 -0.00116085 -0.000746717 -0.00139905 -0.00064593 0.00123584 
0.00337647 0.000674375 -0.00324171 -0.00215535 0.00238402 0.0042962 0.0014829 -8.48836e-05 0.00249969 0.00469282 
0.000968928 -0.00510361 -0.00508947 -0.00203102 -0.00579098 -0.0103458 -0.00970487 -0.0130123 -0.01906 -0.0204967 
-0.0245523 -0.0301596 -0.0321683 -0.037145 -0.0414369 -0.0442449 -0.0498266 -0.0542307 -0.059059 -0.0633258 
-0.0652964 -0.0675888 -0.0666996 -0.0647138 -0.061047 -0.0558088 -0.0507408 -0.0452986 -0.0418292 -0.0392359 
-0.0384325 -0.0373843 -0.0352019 -0.0304081 -0.0225868 -0.0128053 -0.00204033 0.00720547 0.014768 0.0193102 
0.0221708 0.022166 0.0195252 0.0120416 0.000773625 -0.0126889 -0.0221133 -0.0233671 -0.0134512 0.00256842 
0.0170435 0.0209999 0.0127355 -0.0023185 -0.0145247 -0.0158193 -0.00743008 0.00611346 0.0137271 0.0123327 
0.000720045 -0.0118207 -0.014451 -0.00428533 0.0146313 0.0166574 0.00228173 -0.0145066 -0.0135118 0.00618576 
0.0183056 0.00713563 -0.012158 -0.0170113 -0.00497365 0.00491099 0.00129737 -0.00465226 -0.00304574 0.00011917 
0.000339628 0.000301242 0.000447281 -0.000102499 -7.82497e-05 -0.00120317 -0.00121238 -0.001776 0.000679529 0.00256895 
0.00169049 -0.00322858 -0.00345547 0.00165374 0.00458202 0.000845889 -0.00410457 -0.0035713 -0.00100492 -0.00325005 
-0.0073346 -0.00498801 0.00038227 -0.00252605 -0.00899604 -0.00719435 -0.00653144 -0.0124427 -0.0126159 -0.0103493 
-0.0130569 -0.0112479 -0.00858181 -0.0092212 -0.00585534 -0.0048009 -0.00549874 -0.00497267 -0.00752353 -0.00958939 
-0.0131501 -0.0174287 -0.0190624 -0.0206723 -0.0184677 -0.0150002 -0.0101477 -0.00549813 -0.00349647 -0.00411879 
-0.00959205 -0.0171164 -0.026758 -0.034328 -0.0392609 -0.0392833 -0.0353894 -0.02796 -0.0181981 -0.00681935 
0.0058688 0.0181819 0.0276439 0.0300159 0.0228031 0.00664224 -0.0122333 -0.0248959 -0.0244997 -0.0106839 
0.00756107 0.0196261 0.0169639 0.00434799 -0.0102068 -0.0142114 -0.00889085 0.00247709 0.00991502 0.0101644 
0.00421119 -0.00616917 -0.0104954 -0.00869206 0.00666792 0.0167079 0.00878675 -0.00870213 -0.0164126 -0.00233341 
0.0160728 0.0124217 -0.00811668 -0.0191211 -0.00953575 0.0045679 0.00456801 -0.00347309 -0.00428546 -0.000632612 
0.00110562 8.11946e-05 0.000433695 -0.000134055 -0.000209114 -0.00159642 -0.00168197 -0.00112069 0.00188933 0.00192011 
-0.000506056 -0.00288816 0.000757771 0.00375649 0.00126217 -0.003708 -0.00386773 0.000480202 0.00267117 0.000939966 
0.00140125 0.00343781 -0.000638931 -0.00804494 -0.00619188 -0.000795044 -0.00426216 -0.00421891 0.00422903 0.00753931 
0.0115734 0.0224142 0.0287614 0.0367348 0.0470403 0.0512205 0.0560092 0.0574759 0.0543415 0.0505885 
0.0420452 0.0344089 0.0269767 0.0208139 0.0197852 0.020771 0.0268184 0.0339219 0.041423 0.0457324 
0.0444076 0.0375783 0.02448 0.00945458 -0.00697887 -0.0200905 -0.0307966 -0.0364124 -0.0386352 -0.0347171 
-0.0254731 -0.00929244 0.00930927 0.0259633 0.0319822 0.0250472 0.00581578 -0.0139413 -0.0251232 -0.0187991 
-0.00229703 0.0150349 0.0179872 0.00823939 -0.00744969 -0.013831 -0.00833952 0.00197429 0.00899032 0.00641353 
0.00243564 -0.00427749 -0.00586699 -0.00713298 -0.00066566 0.0110471 0.0111283 -0.00271107 -0.0148657 -0.00897321 
0.0104576 0.0155923 -0.00246547 -0.0188524 -0.0134099 0.00319491 0.00776378 -0.000741436 -0.00444951 -0.00144628 
0.00206415 -0.000403165 0.000556045 -0.000140394 -0.000569072 -0.00199003 -0.00161353 -6.12625e-05 0.00206746 0.000817383 
-0.000896867 -0.00122797 0.00101049 -1.3255e-05 -0.00195151 -0.00164488 0.00145463 0.00299114 0.000688311 -0.00315631 
-0.00480208 -0.00679311 -0.00816983 -0.0033521 0.00504534 0.00537405 0.00520548 0.0166313 0.0261241 0.0312795 
0.0453449 0.058898 0.0678465 0.0826729 0.0921955 0.0973005 0.102969 0.100445 0.0957284 0.0866701 
0.0714214 0.0565834 0.0380985 0.023584 0.0130975 0.00807736 0.0121325 0.0211265 0.0361696 0.0498702 
0.0613646 0.065744 0.0632874 0.054481 0.0408772 0.0259935 0.00948855 -0.00556797 -0.0210282 -0.0319169 
-0.0378314 -0.0322837 -0.0179038 0.00407525 0.021497 0.0287084 0.0185539 7.88681e-05 -0.0179005 -0.0204019 
-0.00872168 0.00989256 0.0184191 0.010744 -0.00570555 -0.0165746 -0.00943341 0.00360968 0.0128805 0.00681277 
-0.0015929 -0.00657261 -0.00401406 -0.00122401 -0.00119994 0.00434151 0.00937267 0.00169237 -0.0108762 -0.0118047 
0.00383343 0.0153953 0.00328026 -0.0164253 -0.0163502 0.00114597 0.0104795 0.00289444 -0.00342773 -0.00176058 
0.00296829 -0.00108293 0.000843075 -0.000262804 -0.00105449 -0.00206809 -0.00121552 0.000609554 0.0015128 0.000408978 
-0.000510489 -0.00100203 -0.000488399 -0.000220539 0.00165225 0.00174298 -0.000459511 -0.00311782 -0.00408973 -0.00330319 
-0.000110776 0.0036785 0.00871542 0.0121821 0.0114848 0.0113159 0.0222416 0.0349656 0.0402471 0.0524308 
0.0691862 0.0775207 0.0891855 0.102403 0.105613 0.110903 0.111602 0.105035 0.0985095 0.0824635 
0.0629211 0.0405748 0.0136813 -0.00861293 -0.0308233 -0.0441376 -0.0483665 -0.0427198 -0.0266844 -0.00720422 
0.0158589 0.0334194 0.0471966 0.0521724 0.0528918 0.0485945 0.0416543 0.0311823 0.0162218 -0.00149446 
-0.0193083 -0.029664 -0.0291787 -0.0155152 0.00313765 0.0182261 0.0194577 0.0074374 -0.00984888 -0.019058 
-0.0117495 0.00543227 0.0203639 0.0156145 -0.00160035 -0.0205385 -0.0170833 0.00127736 0.0176211 0.0139216 
-0.00264881 -0.0119532 -0.00742781 0.00222884 0.00366685 0.000623073 0.00400028 0.00323017 -0.00639491 -0.0115153 
-0.00130203 0.0128105 0.00785101 -0.012071 -0.018084 -0.00184805 0.0121916 0.00698439 -0.00176269 -0.00124909 
0.00358595 -0.001821 0.00128447 -0.000533633 -0.0014661 -0.00185885 -0.000913639 0.000865145 0.00115656 0.000803026 
-0.000604277 -0.00178254 -0.000747052 0.00183084 0.0021878 -0.00236041 -0.00464427 -0.000814064 0.00412914 0.00536477 
0.00520347 0.00447873 0.00389002 0.00327328 0.00858094 0.0212342 0.034186 0.0385658 0.04622 0.0614553 
0.0674886 0.0705112 0.0806012 0.0815705 0.0793953 0.0823467 0.0765579 0.0727917 0.0677163 0.0540598 
0.041703 0.0209065 -0.00318247 -0.0292988 -0.0596023 -0.0815233 -0.0984743 -0.1017 -0.0944764 -0.0775387 
-0.0539008 -0.0316708 -0.0103333 0.00299977 0.0152903 0.0223644 0.0308451 0.0341869 0.0340003 0.0241936 
0.00951051 -0.00770504 -0.0172507 -0.0171339 -0.0053399 0.00712539 0.014661 0.00777136 -0.00474692 -0.0180405 
-0.0149235 -0.00141867 0.0189806 0.0221056 0.00795406 -0.0168081 -0.0263238 -0.00819463 0.0163662 0.0232558 
0.00369087 -0.0159291 -0.0136834 0.00153484 0.010328 0.00332199 -0.00150603 0.00121715 -0.00205375 -0.00886768 
-0.00465632 0.00882952 0.0102794 -0.00652812 -0.0175199 -0.00515396 0.0119493 0.0108267 -0.000213935 -2.79247e-05 
0.00378309 -0.0024719 0.00178323 -0.000941066 -0.00169381 -0.00153664 -0.000781859 0.00110476 0.00120332 0.00100471 
-0.00162749 -0.00214771 0.000579463 0.00307935 -0.000126274 -0.00406195 -0.000378657 0.005543 0.0039291 -0.00190678 
-0.00259814 0.00175311 0.00860238 0.0168477 0.0276628 0.0333064 0.0322464 0.0331485 0.0423168 0.0432184 
0.0346252 0.0340927 0.0310159 0.0187656 0.0168718 0.0153083 0.0119956 0.0207902 0.0251807 0.0305785 
0.0368612 0.0311716 0.0232999 0.00248855 -0.0238188 -0.0500345 -0.0769642 -0.0915324 -0.0993512 -0.0923504 
-0.0795887 -0.0623647 -0.0468831 -0.0364502 -0.0268704 -0.0202087 -0.00784851 0.00276313 0.0155541 0.0188455 
0.0175265 0.00660751 -0.000749711 -0.00662351 -0.000896505 0.00450393 0.011674 0.0064698 -0.00152831 -0.0146915 
-0.0161365 -0.00825591 0.00994491 0.0223754 0.0159664 -0.00412361 -0.0267354 -0.0195114 0.0075752 0.0269315 
0.0154539 -0.0146561 -0.0217624 -0.00406722 0.0134815 0.0100295 -0.00346096 -0.00424991 2.41368e-05 -0.00361431 
-0.00511359 0.00458006 0.0102178 -0.0016117 -0.0149377 -0.00712073 0.0100805 0.01386 0.000330609 0.00122579 
0.00362052 -0.00290176 0.00225871 -0.00137521 -0.00172284 -0.00128559 -0.000733696 0.00145805 0.00131368 0.000668429 
-0.00254012 -0.0012782 0.00190299 0.002189 -0.00237461 -0.00217727 0.00318108 0.00368169 -0.00150709 -0.000627044 
0.0084381 0.0158451 0.0178156 0.0166989 0.0151035 0.010661 0.00995132 0.0131421 0.00877656 -0.00941546 
-0.0226174 -0.0319536 -0.0523262 -0.0659909 -0.066647 -0.0700946 -0.0576899 -0.0328691 -0.00960326 0.0258863 
0.0558187 0.0778713 0.0933533 0.0866565 0.0725722 0.0440388 0.0120859 -0.0147206 -0.0362588 -0.040703 
-0.0401857 -0.0297412 -0.0249818 -0.0218954 -0.0251358 -0.0285079 -0.0278678 -0.0231044 -0.0127847 -0.00508799 
0.00120533 9.1414e-05 0.000819416 0.000313244 0.00618259 0.00899634 0.0112816 0.00537057 -0.00220969 -0.00986093 
-0.0130177 -0.00761639 0.000462856 0.014782 0.0145623 0.00640686 -0.0161641 -0.0249671 -0.00428294 0.0212921 
0.0256586 -0.00450889 -0.0264559 -0.0123191 0.0125655 0.0167103 -0.000453451 -0.00981592 -0.00268597 0.00129159 
-0.00215958 0.00161944 0.00846753 0.00197254 -0.011831 -0.00752231 0.00744045 0.0164922 -8.60904e-05 0.00143417 
0.00338471 -0.00306272 0.00263235 -0.00176814 -0.00164192 -0.00115341 -0.000593377 0.00186357 0.00124979 5.17631e-05 
-0.00279905 -0.000119246 0.00199433 0.000772112 -0.00204929 0.000933906 0.00315902 0.000693636 0.000134562 0.00626652 
0.00992928 0.0057624 0.000689741 0.000102828 0.00244435 0.00192858 -0.00178677 -0.0159518 -0.0412818 -0.0663447 
-0.0849351 -0.112754 -0.140022 -0.1483 -0.152651 -0.148107 -0.1169 -0.0816166 -0.0354207 0.0238582 
0.0728572 0.121905 0.153669 0.163515 0.160374 0.131988 0.100264 0.0628264 0.0342041 0.0200007 
0.0149262 0.0223793 0.0238655 0.026399 0.0159004 0.00666059 -0.00676519 -0.0121518 -0.0163108 -0.0157614 
-0.0169925 -0.0161401 -0.0134214 -0.00406928 0.00674834 0.0162006 0.0141739 0.00675999 -0.00692666 -0.00908357 
-0.00943847 0.000501778 0.000886986 0.00704963 0.00704086 0.0062713 -0.00155509 -0.0191004 -0.0120992 0.00971369 
0.0256327 0.00869937 -0.023581 -0.0212121 0.00796903 0.0210558 0.00496547 -0.011982 -0.00775169 0.00288416 
0.00212767 0.000648496 0.00565071 0.00430863 -0.00872545 -0.00674553 0.00405867 0.0186682 -0.000163607 5.03662e-05 
0.00328588 -0.00298591 0.00287128 -0.00207007 -0.00154541 -0.00112875 -0.000335078 0.00214418 0.0010374 -0.000464077 
-0.00248524 0.000609144 0.00149518 0.000360401 -0.000654906 0.00142946 0.000590978 0.000610875 0.00402701 0.00621943 
0.0023986 -0.000462039 0.0021988 0.00407436 -0.00221611 -0.0193481 -0.0430373 -0.0720984 -0.0999834 -0.126061 
-0.157797 -0.192848 -0.209973 -0.216585 -0.221357 -0.201482 -0.165813 -0.128635 -0.0695526 -0.00912538 
0.0475572 0.107904 0.144478 0.169308 0.170876 0.147224 0.11612 0.0712431 0.0405407 0.0186745 
0.0160181 0.0247567 0.0354176 0.0466504 0.0441238 0.0413878 0.0278029 0.0219461 0.00934823 0.00264814 
-0.0130518 -0.020506 -0.0273607 -0.0152755 -0.00115866 0.0193627 0.0189446 0.0109884 -0.0116122 -0.0162528 
-0.0115979 0.00684929 0.011821 0.0051408 -0.00109471 -0.0056986 0.00373054 -0.00499233 -0.0107336 0.000743179 
0.0170284 0.0159806 -0.0131774 -0.0258949 0.00034005 0.0231511 0.010677 -0.0119303 -0.0121914 0.00217866 
0.00568347 0.00118359 0.00221638 0.00503586 -0.00603214 -0.00475849 0.000421511 0.0191294 0.00108886 -0.00246142 
0.00338001 -0.00271972 0.00296348 -0.00228462 -0.00147618 -0.00111673 5.32132e-05 0.00223843 0.000817171 -0.000797653 
-0.00203498 0.000723568 0.00111171 0.000675936 7.47077e-05 0.000388022 0.000131037 0.0034079 0.00418109 -0.000234535 
-0.00371857 -0.00182368 -0.00410473 -0.0176311 -0.038334 -0.060953 -0.0824381 -0.105931 -0.132863 -0.166971 
-0.201994 -0.223955 -0.232831 -0.243524 -0.240725 -0.217957 -0.19879 -0.169236 -0.123862 -0.0858776 