# vtk DataFile Version 2.0
Titre
ASCII
DATASET STRUCTURED_POINTS
DIMENSIONS 100 100 1
ORIGIN 0.0 0.0 0.0
SPACING 0.1 0.1 0.0
POINT_DATA 10000 
SCALARS rho float
LOOKUP_TABLE default
0.00161828 0.00197682 0.000859031 -0.00113831 -0.00131608 -0.00255883 -0.000900792 -0.000727696 0.00139914 0.00201024 
0.00253824 0.00117968 0.000220971 -0.00078943 -0.000379525 -0.000182312 6.98876e-07 -9.86039e-05 0.000611609 0.000176689 
-0.000711662 -0.000724768 0.000749103 0.000424513 -0.000570658 -0.000715149 0.000481473 0.000360641 -0.000527757 -0.000459051 
0.000544754 8.43544e-05 -0.000678179 0.00027095 0.000321732 -0.000513021 0.000130236 0.000222877 -0.000254237 -4.77212e-06 
0.000220134 -0.000263521 0.000131471 1.49099e-06 -7.48163e-05 7.05013e-05 -1.88446e-05 6.82816e-06 2.15072e-05 1.02416e-05 
-7.63979e-06 1.88148e-05 -1.5744e-05 1.63152e-06 5.54311e-06 -6.9934e-06 2.20803e-05 -1.1929e-06 1.80489e-05 3.57497e-06 
4.64003e-06 5.41208e-06 -9.52095e-07 8.44175e-06 1.33924e-06 8.02152e-06 -3.1657e-07 -8.97062e-07 -9.34704e-06 -1.18456e-05 
-1.18958e-05 5.50298e-08 3.28381e-05 9.77356e-05 0.000217014 0.000402551 0.00067837 0.00103426 0.0014574 0.00187327 
0.00219708 0.00230063 0.00210526 0.00158813 0.000873243 0.000145991 -0.000350216 -0.000628249 -0.000737162 -0.00108928 
-0.00143289 -0.00158416 -0.00065542 0.000985529 0.00213271 0.00135064 -0.00087152 -0.00193921 -0.000324257 0.00111944 
-0.000665125 -0.00117444 -0.00213983 -0.000755109 -0.000734912 0.00109303 0.00144199 0.00220622 0.0020198 0.00121023 
-0.000521279 -0.00102561 -0.000953675 -4.71049e-05 0.000332122 8.35783e-05 -0.000419953 0.000555693 0.000320526 -0.00103873 
-0.00102457 0.00140356 0.000884604 -0.00124554 -0.000945168 0.00108091 0.000751353 -0.000898236 -0.000704046 0.00100927 
0.000473884 -0.00125349 0.00030028 0.000913682 -0.000748951 -0.000342695 0.00104982 -0.000712329 -6.65451e-05 0.000530398 
-0.000412659 4.45568e-05 0.00020258 -0.000177556 2.63692e-05 0.000124863 -0.00013612 8.8482e-05 -5.02014e-06 -4.95135e-05 
3.41857e-05 -3.43742e-05 -2.08297e-05 1.9859e-05 -2.69681e-05 2.64883e-05 1.09045e-05 8.74954e-06 3.30475e-05 -3.43839e-06 
2.58595e-05 -6.75989e-06 8.61732e-06 -6.19223e-06 -2.31418e-06 -2.66311e-06 -1.57866e-06 6.48253e-06 1.04409e-05 2.15626e-05 
2.57897e-05 2.86291e-05 1.64498e-05 -1.26661e-05 -6.74374e-05 -0.000146297 -0.000236393 -0.000310214 -0.000315786 -0.000201715 
8.31876e-05 0.000524777 0.0010531 0.00149608 0.0016874 0.00152129 0.00109425 0.000672071 0.000467084 0.000461622 
0.000115947 -0.000828538 -0.0022081 -0.00252643 -0.00103948 0.00148217 0.00233439 0.000663694 -0.00109021 -0.000793585 
0.000787477 0.000826276 0.00165126 0.000976181 0.000436786 -0.000795009 -0.00202443 -0.00143384 -0.000926635 0.000347659 
0.000824675 0.00159138 0.000229376 -0.000216917 -0.000929161 -0.000731581 0.000238242 0.00106702 -0.0006042 -0.000830371 
0.000949583 0.0011202 -0.00167768 -0.000364956 0.00129586 0.000635328 -0.00134312 -0.000167144 0.000945305 0.000482397 
-0.0012499 2.15893e-05 0.00138201 -0.000827037 -0.00078577 0.00145556 -0.000558901 -0.000636322 0.000912878 -0.000227902 
-0.000567628 0.000819297 -0.000490066 2.05168e-05 0.00026881 -0.000267946 0.000117358 -6.88281e-07 -6.95379e-05 1.72644e-05 
7.90514e-06 -3.84619e-05 4.31175e-05 1.02003e-05 -1.83073e-06 5.25951e-05 -3.18639e-05 2.86474e-05 -2.9673e-05 -1.57675e-05 
-1.98447e-05 -4.08455e-05 -1.77504e-05 -4.87534e-05 -2.75796e-05 -5.7366e-05 -5.09107e-05 -7.96621e-05 -8.85449e-05 -0.000116342 
-0.000129085 -0.000139913 -0.000121681 -6.90361e-05 4.19163e-05 0.000219357 0.000465858 0.000762091 0.00106032 0.00129908 
0.00139647 0.00131053 0.00101949 0.000592861 9.79256e-05 -0.000363889 -0.000789652 -0.00117251 -0.00150062 -0.00162184 
-0.00131771 -0.000552166 0.000326417 0.000695091 0.000220147 -0.000557715 -0.000816544 -8.3192e-05 0.00100973 0.00166404 
0.000562589 0.000956257 0.00280537 0.00087019 0.0023155 0.000155525 0.00146485 0.00151216 0.00149052 0.000377983 
-0.000241564 -0.00177472 -0.00152425 -0.000258296 0.000642329 0.000398381 0.00127162 -0.00025497 -0.000800086 -0.000170244 
0.00117891 -0.00104946 0.000165595 0.0012345 -0.00032313 -0.00130165 0.000833491 0.000875591 -0.000621848 -0.000500719 
0.000194171 0.000989476 -0.000745057 -0.000647285 0.00110082 0.000116082 -0.00144635 0.00137688 -0.000121855 -0.000958507 
0.00101546 -0.000291052 -0.000404751 0.000575765 -0.000300077 -0.000103742 0.000289331 -0.000278762 0.000124162 2.15596e-05 
-5.34525e-05 7.52561e-05 5.17979e-06 -1.6125e-05 3.08751e-05 -3.72212e-05 -2.25545e-05 -3.03693e-06 -5.44547e-05 2.53618e-05 
-3.41065e-05 3.72922e-05 1.00473e-05 5.09613e-05 6.08489e-05 8.74674e-05 0.000126743 0.000160273 0.000219528 0.000264866 
0.000324484 0.000355979 0.000369227 0.000325855 0.00022585 5.29597e-05 -0.00016904 -0.000403671 -0.000576474 -0.00061317 
-0.000450373 -0.000100736 0.000350711 0.000722858 0.000859824 0.000679783 0.000310055 -4.59182e-05 -0.000227547 -0.000373206 
-0.000827495 -0.00164418 -0.00239006 -0.00196102 -0.000336468 0.00138233 0.00122848 -0.000343036 -0.000966913 0.000225199 
0.000861599 0.00344763 0.00125185 0.000669608 -0.000953014 -0.00296241 -0.0022714 -0.00210998 -0.00166423 0.000713246 
0.00116775 0.00152378 0.00156299 0.000656044 -0.0014687 -0.00058283 0.00050775 -0.000168758 -0.000333428 0.000680292 
0.000328596 -0.000325942 0.000951075 -0.00112671 -0.000694243 0.00159192 0.000810101 -0.00218734 0.000297004 0.00137388 
-0.000353447 -0.00087381 0.000262044 0.000667879 -6.24171e-05 -0.00117631 0.00116424 0.000161311 -0.00118597 0.000830713 
0.000389423 -0.00124858 0.00110337 -0.000319018 -0.000424316 0.000662844 -0.000447428 0.000111736 0.000166472 -0.00018861 
0.000142699 -3.32025e-05 -3.95175e-05 1.35879e-05 -2.91074e-05 -4.08517e-05 3.65044e-05 -3.4126e-05 4.60194e-05 1.77129e-05 
1.51971e-05 4.27959e-05 -2.38432e-05 1.64209e-05 -7.32903e-05 -6.11668e-05 -0.000160181 -0.000195112 -0.000306005 -0.000378962 
-0.000485407 -0.000546343 -0.000584746 -0.000539519 -0.000415915 -0.000184962 0.00011992 0.000463879 0.000760645 0.000933783 
0.000913353 0.000698071 0.00034071 -5.13015e-05 -0.000406329 -0.000713497 -0.00104624 -0.00142804 -0.00174413 -0.00167879 
-0.00115231 -0.000264772 0.000107738 -0.00013397 -0.00085849 -0.000884875 -0.000396067 5.75258e-05 0.000631111 0.00194482 
0.00450194 0.00297342 0.00296087 0.00201528 0.00131569 0.00076368 0.00196031 0.000854381 0.00130853 0.00112798 
-0.00155 -0.00179965 -0.00161791 -0.00150325 -2.19357e-05 0.00280633 0.0010813 -0.000843104 -0.000870817 0.000964926 
-0.000675704 0.00046339 -0.000448769 -0.000285265 0.00137366 0.000354732 -0.00239805 0.000354174 0.00281588 -0.00182707 
-0.00127131 0.00146026 0.000814641 -0.00159041 0.000175112 0.000731139 0.000198535 -0.00134434 0.000963686 0.000517941 
-0.00143643 0.00095137 0.000270874 -0.00107642 0.000967726 -0.000223705 -0.000442905 0.00070956 -0.000532642 0.000169085 
7.57269e-05 -0.000233479 0.000152106 -9.68529e-05 6.27354e-06 3.94724e-05 -5.3697e-07 1.16556e-05 4.81885e-05 -4.85179e-05 
4.75687e-05 -5.6785e-05 2.34001e-05 -1.17909e-05 3.7452e-05 8.06843e-05 0.000130718 0.000236772 0.000317605 0.000459245 
0.000555961 0.000667881 0.000696258 0.000665299 0.000510239 0.000257817 -8.18412e-05 -0.000430163 -0.000698004 -0.000789489 
-0.00065219 -0.000320753 8.26263e-05 0.000374258 0.000411475 0.000162814 -0.000242903 -0.000617162 -0.000903865 -0.00105053 
-0.00141405 -0.0016062 -0.00174681 -0.00104154 -1.57611e-05 0.000902252 0.000590552 -0.000843394 -0.00159413 0.000945269 
0.00253473 3.35198e-05 1.12808e-05 -0.00122025 -0.00224552 -0.00246804 -0.00221518 -0.00274751 0.000724658 0.00021589 
0.00159937 0.00262635 0.00240593 -0.000588349 0.000721584 -0.000786737 -0.00169533 -0.00125446 0.00164987 0.000465629 
-0.000495214 0.00069268 -0.000497907 0.00018132 -7.67495e-06 -0.000881504 0.000265962 0.00215297 -0.00172377 -0.00180727 
0.00265747 0.000597449 -0.00272093 0.000909335 0.00144859 -0.000998628 -0.00092603 0.00131015 0.000118362 -0.00120466 
0.00058492 0.000907306 -0.00162154 0.000990213 0.000280884 -0.00111778 0.00105362 -0.000430697 -0.000285466 0.000581631 
-0.0005477 0.00028369 6.74648e-06 -9.64237e-05 0.000183364 -5.89509e-05 4.49832e-05 3.47715e-05 -3.00125e-05 2.00277e-05 
9.90654e-06 -2.57362e-05 5.7264e-05 -5.79336e-05 3.56734e-05 -0.000115909 -8.47275e-05 -0.00025746 -0.000309475 -0.000493331 
-0.00058558 -0.000720294 -0.000736778 -0.00069932 -0.000505044 -0.000218618 0.000170226 0.000543394 0.000826314 0.000904831 
0.000755089 0.000418199 2.66968e-05 -0.000275911 -0.000420471 -0.000486297 -0.000655267 -0.000982522 -0.00151224 -0.00160112 
-0.00146572 -0.00065942 -0.000369965 -0.000390209 -0.000828768 -0.000626632 -1.31855e-05 7.07306e-05 -0.000716033 -0.000429325 
0.00243584 0.000932832 0.00116954 0.00202363 1.92894e-05 0.00217691 -0.00118316 0.00165137 0.000275557 -0.00116691 
-0.00165924 -0.00164089 -0.00389926 -0.00195411 0.00173385 0.001685 0.00112824 0.000699323 0.000172896 -0.00198268 
0.000591157 0.000265519 -0.000784863 0.000209222 0.000649339 0.000219276 -0.000277247 -0.000565546 -0.000942012 0.00256443 
-0.0004082 -0.00234036 0.000875506 0.00253686 -0.00268044 -0.000259901 0.00188611 -0.000479203 -0.00138465 0.00118367 
0.000481928 -0.0013804 0.000581455 0.000868387 -0.00151746 0.000886036 0.000286391 -0.00111278 0.00115874 -0.00058044 
-3.46196e-05 0.00050382 -0.000532052 0.000388852 -0.000182456 -5.49461e-05 2.35014e-05 -0.000149201 -4.77022e-05 -6.22547e-05 
-0.000135233 -3.23152e-05 -0.000143737 -6.34764e-05 -8.85288e-05 -4.9061e-05 4.32442e-05 9.87648e-05 0.000284075 0.000385239 
0.000591184 0.000674056 0.000762351 0.000680225 0.000507862 0.000179231 -0.00020676 -0.000584259 -0.00082917 -0.000854454 
-0.000648433 -0.000291251 3.94305e-05 0.000166563 1.53621e-05 -0.000324513 -0.000726208 -0.00079815 -0.000993045 -0.000787662 
-0.00121071 -0.00120291 -0.00133299 -0.000700476 4.79333e-05 0.00070923 0.000610545 -0.000443602 -0.00151464 -0.000415495 
0.00252843 -0.00110824 0.000978753 -0.000151872 -0.000768122 -0.0006902 -0.00248489 0.00199364 -0.000496789 0.00218099 
0.00351004 0.00299385 0.000356749 0.00242995 -2.41532e-06 -0.00179415 -0.00320962 -0.000212006 -0.000543753 0.00136958 
0.00151058 -0.000922617 -0.000468182 0.000789241 1.49377e-05 -0.00127011 6.39143e-05 0.00110061 0.000679931 -0.00118927 
-0.001409 0.00186235 0.00137837 -0.00277982 -0.000163254 0.00284803 -0.00144049 -0.00167275 0.00228349 -0.00017934 
-0.00155621 0.0010058 0.000711366 -0.0014943 0.000659587 0.000767206 -0.00143751 0.0010006 8.03595e-05 -0.000912339 
0.00112241 -0.000795163 0.00017805 0.000213624 -0.00046701 0.000414681 -0.00022708 0.000182615 0.000122145 0.000123846 
0.000231146 0.000248865 0.000227728 0.000373788 0.000219487 0.00038116 0.000150571 0.000207093 -7.81403e-05 -0.000150475 
-0.000443662 -0.000539356 -0.000702604 -0.000628815 -0.000504657 -0.000164857 0.00018974 0.000568788 0.000772023 0.000778013 
0.000548828 0.000216895 -5.28547e-05 -0.000127938 -1.57334e-05 0.000189123 -7.42095e-05 -0.000310627 -0.00131146 -0.00137436 
-0.00149979 -0.000579201 -0.000148095 -6.74669e-05 -0.0004581 -0.000385014 0.000321848 0.00048649 -0.00100222 -0.00180521 
-0.000686955 -0.00144216 0.000531993 -0.000280751 -0.000110152 -0.0020976 -0.000744092 -0.000923826 -0.00311495 -0.00147444 
-0.00140895 -0.00530503 -0.00266213 -0.000631023 0.00104305 0.00157416 0.00269539 0.00204369 -0.00100169 -0.000253879 
-0.00151368 -0.000772566 0.000905111 0.00015262 -3.51337e-05 -0.000209047 0.00130258 -0.000843932 -0.00103738 -0.000201785 
0.00260187 -0.000884144 -0.00209913 0.000684563 0.00276415 -0.00228891 -0.00150613 0.0030264 -0.00044225 -0.00247223 
0.00223947 0.000223713 -0.00175747 0.00100358 0.000726443 -0.001461 0.000693842 0.00066973 -0.00145302 0.00116421 
-0.000277524 -0.000641855 0.00105397 -0.00092465 0.000564023 -5.75914e-05 -0.000188731 0.000288085 -0.00035054 1.27741e-05 
-0.000299819 -0.000339617 -0.000375873 -0.000536654 -0.000536506 -0.00057696 -0.000587595 -0.000431675 -0.000374561 -6.05576e-05 
8.2213e-05 0.000402807 0.000491382 0.000585453 0.000427831 0.000184665 -0.000175614 -0.000497789 -0.000672318 -0.000636216 
-0.000388886 -9.30476e-05 0.000105774 4.88045e-05 -0.000343498 -0.000484115 -0.000987018 -0.000378033 -0.000636889 -0.00015525 
-0.000818286 -0.000983851 -0.00105998 -0.000408483 0.00034195 0.000726458 0.00064051 0.000202386 -0.000741578 -0.00196408 
-0.00142168 0.00187464 0.000172611 0.00308724 -0.000633406 0.00145122 0.00124937 0.00139569 0.00124146 0.0055083 
0.00274043 0.00101871 0.00292449 0.00020766 -0.000503497 -0.00352522 -0.00208984 -0.00322463 0.000237307 0.00172492 
0.00137255 0.000769813 -0.000428715 -0.00051376 0.000235985 -0.000593019 -0.000238292 0.000108999 0.000704415 0.000871821 
-0.00133454 -0.00161933 0.00241172 0.001097 -0.00278432 -0.000364936 0.00307417 -0.00099782 -0.00269559 0.00283454 
0.000495086 -0.00300189 0.00214336 0.000496451 -0.00194259 0.00116191 0.00048665 -0.00132964 0.000744668 0.000453124 
-0.0013126 0.00130597 -0.000609347 -0.000234386 0.000794399 -0.00099263 0.000728641 -0.000475073 0.000120884 0.000127528 
6.16227e-06 0.000391812 0.000340959 0.000523314 0.000724965 0.000633361 0.000888105 0.000596359 0.000700449 0.00026735 
0.000196359 -0.000248743 -0.000308488 -0.000526879 -0.00033951 -0.000200582 0.000188782 0.000422349 0.00059376 0.0004882 
0.000245682 -6.7115e-05 -0.000221987 1.42029e-05 3.03096e-05 0.000757156 -3.41437e-05 0.000135906 -0.0011851 -0.00105661 
-0.00107824 -0.00024912 0.000249734 0.000274812 -1.76256e-05 -1.23714e-05 0.000533519 0.000804731 -0.000145782 -0.00132672 
0.00113429 0.000716064 0.00101623 0.00046933 -0.00166767 -0.000589008 -0.00241139 -0.00367714 -0.00201273 -0.000350924 
-0.00496037 -0.00181466 -0.00170624 0.000850076 0.0018277 0.00347178 0.00337908 0.00176804 0.0012253 -0.00206043 
-0.00189933 -0.0012856 -0.000561744 0.00198285 -0.000197836 -0.000233933 0.000685199 0.000601214 -0.00183631 0.000250282 
-0.00023144 0.00206751 -0.000402897 -0.00280772 0.00140433 0.00253741 -0.00233256 -0.00162922 0.00304178 0.000160147 
-0.00339675 0.00251583 0.00109629 -0.00325433 0.00210819 0.000520192 -0.00195352 0.00134817 0.000231649 -0.0011205 
0.000905564 0.000187475 -0.00104375 0.00140008 -0.000962212 0.000360989 0.000397766 -0.00061863 0.000857955 -0.000566546 
0.000409134 -0.000284574 -0.000181768 -0.000354651 -0.000580737 -0.000650156 -0.000733805 -0.000789088 -0.000572003 -0.000523737 
-9.57924e-05 3.64079e-05 0.000396242 0.000405866 0.000409291 0.000160562 -0.000134456 -0.000380175 -0.000502171 -0.000363936 
-7.96001e-05 0.000237153 0.000169715 0.000364033 -0.000726249 -0.000111336 -0.00110858 0.000128999 -0.000148459 0.000257452 
-0.000351904 -0.000767822 -0.000726531 -7.02042e-05 0.000670863 0.000878611 0.000678694 0.000455886 -0.000222637 -0.00121918 
-0.0023645 -0.000552111 -0.000242608 -0.00114295 0.00123212 -0.000719606 0.000696276 -0.00155379 0.00514022 0.000606672 
0.00140285 0.000781801 -0.00104969 -0.000703333 -0.00367897 -0.0031684 -0.00494905 -0.00156773 -0.000690416 0.00159785 
0.00356995 0.000805333 0.000265347 0.000287321 -0.00238393 6.33949e-05 0.000856698 -0.00124401 0.000588148 0.00179702 
-0.0010467 -0.000785164 -0.000905052 0.00175187 0.00165771 -0.00355709 0.000112367 0.00328659 -0.00145387 -0.00243481 
0.00247495 0.0013466 -0.0039725 0.00235419 0.00146366 -0.00353098 0.00247305 7.36818e-05 -0.00166566 0.00140193 
-0.000183414 -0.000904304 0.0008088 -0.000230772 -0.000874155 0.00118618 -0.00144269 0.000738158 -0.000522564 -0.000305005 
0.000230796 -0.000578065 0.000395464 -0.000137588 0.000412766 0.00044432 0.000467659 0.000729227 0.000356325 0.000525868 
-7.60999e-05 -1.68943e-05 -0.00056788 -0.000386059 -0.000578619 -0.000147804 -1.88588e-05 0.000352751 0.000361746 0.000229507 
-9.48912e-05 -0.000175869 -0.000743715 0.000462512 -0.00042369 0.00124538 -0.000130787 0.000212299 -0.000902114 -0.000901479 
-0.000613978 1.31257e-05 0.000479365 0.000493554 0.000328643 0.000364234 0.000715317 0.000987227 0.000327718 -0.0018346 
-0.00294159 0.00376096 -0.00126371 0.00340097 0.00129534 0.000104422 -0.00102409 -0.000889185 0.00275282 -0.00252129 
0.0024787 -0.00141534 0.00277528 0.00322508 0.00422464 0.00427318 0.00365816 0.00291858 -0.00149394 -0.00114993 
-0.00270567 -0.0044995 0.00131876 0.00079283 0.000314385 0.00164623 0.00042388 -0.00179606 0.00170389 -0.00205461 
-0.000485334 0.0019852 0.000359979 -0.00054682 -0.00196917 0.000819552 0.00320886 -0.00313429 -0.00137768 0.00358242 
-0.000628146 -0.00276793 0.00180523 0.00215519 -0.00426116 0.00224961 0.00157631 -0.00379882 0.00300721 -0.000721955 
-0.00107606 0.00134683 -0.000394153 -0.000408719 0.000981207 -0.00025105 -8.94275e-05 0.00126203 -0.00103058 0.00159919 
-0.000659251 0.000886387 -2.58932e-05 0.000128881 5.85659e-05 -0.000315171 -0.000251011 -0.000429297 -0.000404309 -0.000166094 
-8.74428e-05 0.000359041 0.000443143 0.000667979 0.000567372 0.000353421 0.000106797 -0.00022559 -0.000165709 -0.000102951 
1.37232e-05 0.000905041 -0.000400131 0.00108483 -0.00130782 0.000101398 -0.000971302 0.000143313 0.000326242 0.000393251 
-2.37738e-05 -0.000534856 -0.000478587 0.000169036 0.000873436 0.00102181 0.000703498 0.000509836 0.000481213 -9.97848e-05 
0.00231904 0.00154702 8.20997e-05 0.00251051 -0.000238285 -0.00154037 -0.00257987 0.000153388 -0.00150631 -0.000757442 
-0.00143289 -0.00461644 -0.00209844 -0.00442061 -0.00477074 -0.00497859 -0.00228453 -0.00215937 0.000242038 0.00530661 
0.00219238 0.00214059 0.00321944 -0.00275336 -0.00210639 0.000139052 -0.00149433 0.000464857 0.00175761 -0.00119489 
0.00202005 -0.00089629 -0.00246146 0.00162038 0.000800869 0.00089208 -0.00259309 -0.000635189 0.00428049 -0.00245041 
-0.00224559 0.00326881 0.000187372 -0.00294658 0.00134578 0.00265166 -0.0045658 0.00268186 0.00113456 -0.00357877 
0.00357171 -0.00168921 -6.19522e-05 0.000742513 -0.000490277 -0.000544121 0.000638316 -0.0011707 -2.81559e-05 -0.000181018 
-0.00124995 0.000586926 -0.00146681 0.000591014 -0.000793519 0.000396484 3.96405e-05 0.000274752 0.000470211 -4.44408e-06 
0.000287129 -0.000549134 -0.000219473 -0.000935772 -0.000423517 -0.000660512 -6.14741e-05 -0.000113371 0.000115055 0.000206431 
-0.000958349 0.000674879 -0.00177071 0.00126361 -0.000600331 0.00121024 0.000212389 -3.93445e-05 -0.000575174 -0.000753324 
-0.000333325 0.00019188 0.000511223 0.000515372 0.000470151 0.000606164 0.000837799 0.000859502 0.000184417 -0.000623382 
-0.00255723 -0.00365272 -0.000515284 -0.00169647 0.000685426 -0.00368174 0.00130522 -0.000520361 0.00160522 0.00412921 
0.00034797 0.00361152 0.00445284 0.00469196 0.00323049 0.0046008 0.00260381 -0.00210418 -0.00153914 -0.00222575 
-0.00768434 -0.00125135 -0.00061283 -0.000252201 0.0031948 0.00285551 -0.00154491 0.00165954 -0.00211957 -0.00112185 
0.000991719 -0.00121396 0.00214437 0.00110487 -0.00317098 0.000477607 0.000482949 0.00219056 -0.00206501 -0.00250406 
0.00510772 -0.00199311 -0.0025006 0.00277784 0.000655142 -0.00285216 0.000939251 0.00299105 -0.00512159 0.00358473 
-0.000176841 -0.00287075 0.00352589 -0.00270483 0.00111336 -0.000151333 0.000246011 -0.000333497 0.0015031 -0.000912495 
0.00182539 -0.000312066 0.000968442 0.000437888 4.11304e-05 0.000456141 -0.000475818 -1.37232e-05 -0.000550144 -0.000251786 
-0.00018712 9.79372e-05 0.000367222 0.000637923 0.000537767 0.000631285 0.000237676 0.000237106 -0.000409076 0.00110036 
-0.00126981 0.0023354 -0.00143203 0.00130292 -0.00112968 -0.000374543 -0.000467596 -4.79207e-05 0.000478842 0.000420429 
4.77579e-05 -0.000358793 -0.000309445 0.000265265 0.00088683 0.00102246 0.000715021 0.000592478 0.000533078 -0.001488 
-0.00536687 0.00264841 0.000846524 0.00378578 0.00285418 0.000129751 0.00278592 -0.00269783 0.00360303 -0.00150008 
-0.00369793 -0.00127253 -0.00295819 -0.00356074 -0.00347687 0.000444457 -0.000620721 0.000364278 0.00712353 0.00436258 
0.00291598 0.00607172 -0.000839016 -0.00212077 -0.00149812 -0.00374505 -0.00145487 0.0025142 -0.000950792 0.00289095 
0.00028028 -0.00187083 0.000918673 -0.00265484 0.0015031 0.00276486 -0.0025907 -0.000350465 -0.000487726 0.00291207 
-0.000912485 -0.00406895 0.0055153 -0.00170002 -0.00246127 0.00241804 0.000786515 -0.00267925 0.000900418 0.00300852 
-0.00545334 0.0050319 -0.00199581 -0.000779082 0.00271383 -0.00250825 0.0018267 -0.000985171 0.000369582 -0.00108322 
0.000675694 -0.00214481 0.00114345 -0.00222978 0.00101827 -0.00123398 0.000735487 -1.27064e-05 0.000490238 0.000683193 
2.71446e-05 0.000567997 -0.000648659 5.04009e-05 -0.000908244 -0.000317458 -0.000488894 0.000313768 -0.0012702 0.00191588 
-0.00276037 0.00194165 -0.00193463 0.000854398 0.000134242 0.000507358 0.000498819 -0.00011964 -0.000417166 -0.000487053 
-0.000173775 0.000228976 0.000403487 0.000386246 0.000447858 0.000680458 0.000804274 0.000655977 0.000629931 0.000169687 
0.00189234 0.00396118 0.00117691 0.00334271 -0.00105687 0.000399542 -0.00452845 -0.0010945 0.00226013 -0.00307452 
0.000104517 0.00166023 0.000691307 -0.000959032 0.000978829 -0.000302501 -0.00468911 -0.00552868 -0.00232975 -0.00962222 
-0.00339898 -0.00184318 -0.00136299 0.00314031 0.00474982 0.00100161 0.00377321 -0.0015351 -0.00304967 0.000334288 
-0.00260014 0.00139236 0.00251206 -0.00154199 0.00212421 -0.00344478 -0.000350232 0.00372262 -0.0016999 -0.000240158 
-0.00184203 0.00330107 6.44109e-05 -0.00497013 0.0057154 -0.00184925 -0.00194707 0.00190321 0.000927598 -0.00282941 
0.00136451 0.00216237 -0.00546951 0.00594438 -0.00469331 0.0017661 -0.000169014 -0.00108523 0.000800664 -0.000264817 
0.000224034 0.000572581 0.000572592 0.000185799 0.00112083 -0.000575865 0.000881325 -0.00106633 0.000153846 -0.0010948 
-0.00013934 -0.000666368 0.000292696 -0.000163757 0.00100252 -7.22235e-05 0.000265345 0.00139222 -0.00250409 0.00330724 
-0.00286121 0.00237028 -0.000745801 0.000214574 -0.000143706 -0.000622808 -0.000235685 -1.25193e-05 0.000301172 0.000324826 
3.90315e-05 -0.00022689 -0.000171876 0.00024346 0.000717346 0.000886975 0.000687731 0.000380186 0.000149989 0.000422747 
-4.77561e-05 -0.0051515 -0.0011206 -0.00418613 -0.000323101 -0.00272402 -0.00565312 0.00491211 -0.000858887 -0.000240242 
0.00156377 0.00247086 0.00027666 0.00118391 0.00511633 0.0040081 0.00370261 0.00761495 0.00803364 0.00261738 
0.00697915 -0.00054655 -0.00188746 -0.00247637 -0.00536333 -0.00462915 0.000655207 -0.00201097 0.00430732 0.00317889 
-0.00131434 0.00164941 -0.00338594 -0.00150047 0.00277964 -0.00161772 0.00366022 -0.00264933 -0.00243032 0.00390809 
-0.00127165 0.000776357 -0.00326378 0.00354847 0.000655966 -0.00544672 0.00611193 -0.00266325 -0.00081895 0.00111277 
0.00132483 -0.00326216 0.00275852 0.000481999 -0.00362701 0.00607611 -0.00559397 0.00485603 -0.00267866 0.00194303 
-0.00130362 0.00121015 -0.00195193 0.0013715 -0.00221476 0.0012424 -0.00128134 0.000941345 0.00012441 0.000507378 
0.000993765 -0.000122255 0.000847647 -0.000931455 0.000255134 -9.94776e-05 -0.00230803 0.00367517 -0.0046383 0.00425294 
-0.00275959 0.000965489 -0.000288013 -0.00037361 0.00042647 0.000185553 0.000271299 2.44641e-05 -0.00023882 -0.000259975 
-7.95619e-05 0.000145449 0.000240988 0.000243218 0.000353238 0.000604945 0.00072647 0.00055004 0.000146013 -0.00118445 
-0.00644551 -0.0019833 0.00135168 0.00167339 0.00834693 -0.00218788 0.00385646 0.00714364 -0.00216709 0.00212853 
4.60793e-05 -0.00027755 -0.00438259 -0.00266079 -0.00313401 -0.00623381 -0.00764309 -0.00396411 -0.00752621 -0.0037491 
-0.000110285 -0.000400412 0.00479217 0.00619542 0.00293909 0.00611541 0.00136938 -0.003165 -0.000478378 -0.00575691 
-0.00155693 0.00366067 -0.000809902 0.00409588 -0.00120593 -0.00331376 0.00217388 -0.00276504 0.00440273 -0.00083388 
-0.00385175 0.00366375 -0.00143729 0.00209839 -0.00440046 0.00382554 0.000647072 -0.00537471 0.00646986 -0.00384946 
0.000681173 -4.02054e-05 0.00183548 -0.00425848 0.00451177 -0.00308005 -0.000368797 0.00240029 -0.00445682 0.00383931 
-0.00369191 0.00246259 -0.00181839 0.00179395 -0.00115495 0.0017816 -0.00132484 0.00131928 -0.0015781 0.000609678 
-0.00172076 0.000660298 -0.00120206 0.00110289 -0.00157846 0.00415966 -0.0054331 0.00656138 -0.00549853 0.0029523 
-0.00105713 -0.000270826 0.000808647 -0.000299899 0.000147919 -0.000173478 -0.000216061 -3.54987e-05 0.000106666 0.0001552 
4.65021e-05 -9.20964e-05 -7.57804e-05 0.000152271 0.000468909 0.000663661 0.000581001 0.00031214 0.000322212 -0.000213847 
-0.000721306 0.00539118 0.00208451 0.00764572 0.00158786 -0.0061202 0.00249159 -0.00313407 -0.00569782 -0.000669505 
-0.0012037 -0.000942142 -9.58671e-05 0.00274902 0.00397527 0.00307746 0.00429346 0.00526531 3.73451e-05 0.00296258 
-0.00400936 -0.00500611 -0.00490172 -0.00722159 -0.0069585 -0.000389244 -0.00389106 0.0031002 0.00609798 0.00126105 
0.00487696 -0.00228786 -0.00556245 0.0016298 -0.00305799 0.00410479 0.00173751 -0.00329978 0.00230989 -0.00444552 
0.00417414 0.000809008 -0.00419916 0.00323608 -0.00198492 0.00340874 -0.00546071 0.00464283 -0.000442296 -0.0042453 
0.00616885 -0.00469733 0.00217422 -0.00100789 0.00242856 -0.00453116 0.00656875 -0.00601439 0.00513335 -0.00235234 
0.00136316 0.000156426 6.41993e-05 -0.000262767 0.000445094 -0.00108293 0.000700001 -0.000664391 0.000460008 0.000799891 
-0.00026319 0.00116927 -0.000240827 0.0012086 -0.00372805 0.00552093 -0.00721338 0.00538789 -0.00253194 0.000411276 
0.0013121 -0.00102451 0.000437182 -0.00031527 -0.000176054 0.000112433 9.36237e-05 9.62304e-05 -2.11971e-05 -0.000100833 
-6.70075e-05 3.11982e-05 0.00010888 0.000153933 0.000256546 0.000454498 0.000560986 0.000311392 -2.32283e-05 0.000782715 
0.00398568 -0.00332931 -0.0013499 0.00077841 -0.0102546 -0.00371779 -0.000531158 -0.00378558 -0.00033258 0.00240248 
0.00168862 0.000304373 0.00177533 -0.000661539 0.00104859 -0.00186398 0.00092997 -0.00042337 0.00249817 0.00614758 
0.00397082 0.00925282 0.00893409 0.00445218 0.00615188 0.00300393 -0.00395726 -0.000199751 -0.00677471 -0.00701578 
0.00127153 -0.00142043 0.00622622 0.00456229 -0.00457704 0.00185166 -0.00520624 0.00160253 0.0033451 -0.00295185 
0.00382969 -0.00598709 0.00354657 0.00157819 -0.00375383 0.00294799 -0.00278412 0.00464217 -0.00660913 0.00619509 
-0.00281458 -0.00159335 0.00429799 -0.00424472 0.00235486 -0.0011651 0.00124257 -0.00343454 0.00500916 -0.00689157 
0.00627721 -0.00602092 0.00421153 -0.00329732 0.00236509 -0.00159238 0.00159552 -0.00122786 0.000899251 -0.00153666 
0.00155458 -0.00350456 0.00196167 0.000966252 -0.00490346 0.00769405 -0.0056825 0.00291789 5.46575e-05 -0.00168858 
0.00080011 -0.000535321 -2.05966e-05 0.000422768 8.06991e-05 9.49958e-05 -7.14524e-05 -0.00013337 -4.847e-05 3.84804e-05 
6.74329e-05 1.8788e-05 -2.08121e-05 4.96664e-05 0.000243893 0.000448938 0.000482965 0.000240971 -0.000263154 -0.000555222 
-0.00311366 -0.00986189 0.00316855 -0.00226045 -0.00169829 0.00854009 0.00340538 0.00500363 0.00524226 0.00409154 
0.00129701 0.00130786 -0.000139637 -0.00246734 4.38129e-05 -0.00336748 -0.00293398 -0.00681667 -0.00412863 -0.00934695 
-0.0103581 -0.00689974 -0.00812688 -0.00709584 0.00150495 -0.00151317 0.00275867 0.00840914 0.00285434 0.00759002 
0.00339002 -0.00671592 -0.0019225 -0.0068578 0.000305965 0.00724392 -0.00266981 0.00423884 -0.00464689 -0.00126487 
0.00354394 -0.00345607 0.00601428 -0.00690935 0.00302153 0.0013814 -0.00278643 0.00261662 -0.00333748 0.00535209 
-0.00746841 0.00796148 -0.00604839 0.00257163 0.000467831 -0.00138777 0.000640134 0.00110697 -0.001498 0.00148849 
0.000308837 -0.00107689 0.0023372 -0.00210124 0.00173983 -0.00130056 0.000637931 -0.00052701 0.00090415 -0.00186897 
0.00405707 -0.00152254 -0.00293566 0.0101226 -0.013208 0.0103883 -0.0057422 0.000389131 0.00142236 -0.000927098 
0.000731938 0.000331225 -0.000170368 -0.000172181 -0.000208079 -0.000183903 6.27864e-05 0.000130623 0.000103803 -1.9769e-06 
-7.97099e-05 -5.49727e-05 3.28405e-05 0.000111821 0.000177477 0.000286492 0.000377527 0.000264502 -2.23918e-05 -0.00121577 
-0.00632736 0.00143924 0.00853608 0.000299032 0.0076156 0.00444812 -0.0031132 -0.000917509 -0.00426499 -0.00626572 
-0.00530551 -0.00176704 -0.00535881 -0.000646134 0.00174533 0.00279508 0.00274655 0.00667344 0.0092457 0.0059036 
0.00870059 0.00836406 0.00152957 0.000897973 6.68907e-06 -0.0087168 -0.00341575 -0.00643151 -0.0102133 -0.00104667 
-0.00374426 0.00394659 0.011406 0.00050609 0.00294585 -0.00617953 -0.00599794 0.00560129 -0.00332608 0.00588944 
-0.00220973 -0.00257693 0.00306282 -0.00472973 0.00798488 -0.00736794 0.0031404 0.00010525 -0.00108315 0.00162874 
-0.00284889 0.00479211 -0.00692886 0.00849097 -0.00833136 0.0064353 -0.00395989 0.00219166 -0.00224766 0.0029021 
-0.0043371 0.00434774 -0.00425253 0.00301042 -0.00168027 0.000488167 0.000535699 -0.000899386 0.00209896 -0.00299976 
-0.00153061 0.00909293 -0.0192219 0.0205155 -0.0146845 0.00503553 0.00302471 -0.00459044 0.00374503 -0.00186846 
0.000119411 -0.00033731 -6.22162e-06 0.000111994 0.000280542 0.000185043 -1.77065e-05 -0.000122304 -0.000140607 -2.50077e-05 
7.72015e-05 7.95836e-05 7.03798e-06 -1.85097e-05 9.23525e-05 0.00028206 0.000356793 0.000134029 -4.8969e-05 0.000204471 
0.00149903 0.00833763 -0.000313518 -0.00143571 0.000195294 -0.00929889 -0.00700176 -0.00306448 -0.00344577 -0.00309003 
0.00489093 0.00416341 -0.000515893 0.00528856 0.00169347 0.000494755 -0.00443731 0.00042681 -0.00520273 -0.00505395 
-0.00107235 0.000189604 0.000130211 0.00854147 0.00735886 0.00594386 0.0120538 0.00420627 0.00553492 0.0069327 
-0.00586539 -0.00323943 -0.00954571 -0.00967298 0.00717771 0.00169991 0.00787144 0.000221221 -0.00762885 0.00437381 
-0.0059237 0.0055546 -0.00013404 -0.00210381 0.0025844 -0.0062636 0.00942261 -0.00775476 0.00408598 -0.00217975 
0.00152117 -0.000585732 -0.00076845 0.00206737 -0.00377962 0.00551957 -0.00672415 0.006357 -0.00471971 0.00292478 
-0.00140559 0.00116483 -0.00119141 0.00145358 -0.00127392 0.00107156 -0.00143771 0.000206112 -7.20243e-05 0.00525939 