# vtk DataFile Version 2.0
Titre
ASCII
DATASET STRUCTURED_POINTS
DIMENSIONS 100 100 1
ORIGIN 0.0 0.0 0.0
SPACING 0.1 0.1 0.0
POINT_DATA 10000 
SCALARS rho float
LOOKUP_TABLE default
0.000420149 0.000687694 0.00063913 -0.000492111 -0.000333768 0.00015904 8.97714e-05 -8.5048e-05 0.000309099 0.000345161 
3.29707e-05 -0.00010728 -0.000184374 -0.000353498 -0.000580189 -0.00058496 -9.74924e-05 0.000432492 0.000543459 0.000339198 
0.000198867 0.000212895 0.000286735 0.000466084 0.000825148 0.00112112 0.00120788 0.0013138 0.0017505 0.00248763 
0.00339694 0.004365 0.00541855 0.00674272 0.00848854 0.0106481 0.0130371 0.0154178 0.0176072 0.0195446 
0.0212534 0.0227481 0.0239476 0.024635 0.0244596 0.0230144 0.0199395 0.0150362 0.0083897 0.000440736 
-0.0079929 -0.0157694 -0.0215959 -0.0242644 -0.0229793 -0.0176556 -0.00912107 0.000889193 0.0100411 0.0159748 
0.0170623 0.0130778 0.00549419 -0.00284053 -0.00868289 -0.00976168 -0.00594214 0.000464925 0.00560697 0.00605582 
0.000892424 -0.00732348 -0.0135832 -0.0132287 -0.00506384 0.00724389 0.0168073 0.0177393 0.00935913 -0.00286788 
-0.0108033 -0.00944477 -0.000671664 0.00808713 0.00986251 0.00379119 -0.00424364 -0.0072554 -0.00344424 0.00229101 
0.00412502 0.00110728 -0.00225338 -0.00186984 0.000628767 0.00198268 0.000324951 -0.000656085 -0.000319698 9.82293e-05 
0.000309291 -0.000897505 -0.000847528 -0.000681347 -0.00029842 0.000622766 0.000441997 0.000163693 0.000104377 -9.13152e-05 
-5.79187e-05 -0.000240724 -0.000439549 -0.000304228 2.03435e-05 0.000808586 0.00143729 0.00114853 0.000488292 0.000228275 
0.000376026 0.000374306 0.000166644 -3.89934e-05 -0.000572 -0.00175512 -0.0031489 -0.00420443 -0.00525455 -0.00681131 
-0.00895036 -0.0114281 -0.0137573 -0.0156547 -0.0171926 -0.0186278 -0.0200574 -0.0212472 -0.0216598 -0.0206797 
-0.0178331 -0.012941 -0.00611581 0.00225366 0.0115775 0.0211053 0.0299434 0.0370783 0.0414664 0.0421236 
0.0383734 0.0300484 0.0177421 0.00293685 -0.0120768 -0.0244943 -0.0316214 -0.0316131 -0.0242306 -0.0112523 
0.00369621 0.01604 0.02176 0.0190067 0.00916332 -0.00333775 -0.0126654 -0.0142418 -0.00723698 0.00455224 
0.0142785 0.015723 0.0071892 -0.00680225 -0.017631 -0.0177937 -0.00619188 0.0102965 0.0207857 0.0178708 
0.00340146 -0.0121971 -0.0174886 -0.00896534 0.00581219 0.0144713 0.0104008 -0.00134829 -0.0092684 -0.00669136 
0.00180766 0.00629272 0.00275971 -0.00304209 -0.00367662 -4.84016e-05 0.00224476 0.000562633 -0.000667663 -0.000278818 
-0.000370848 -0.000740758 0.0011738 0.000343376 0.00120209 0.000909034 -0.000448697 -0.000374239 -0.000103238 5.52073e-05 
-2.65247e-05 -0.000362146 -0.000114117 0.000159229 0.000566639 0.00105892 0.000509634 -0.000404553 -0.000572543 -0.0002938 
-0.000533262 -0.00143811 -0.00232052 -0.00330118 -0.00483518 -0.00643035 -0.00726076 -0.00778466 -0.00890371 -0.0103906 
-0.0116849 -0.0123619 -0.012507 -0.0127609 -0.0138219 -0.0159674 -0.0189758 -0.0223527 -0.0256898 -0.0288009 
-0.0316661 -0.0342333 -0.0362656 -0.0373073 -0.0367293 -0.0339014 -0.0283788 -0.0200526 -0.00929613 0.00298032 
0.0153957 0.0261919 0.0335731 0.0360239 0.0327688 0.0241302 0.0116764 -0.0019017 -0.0133841 -0.0198615 
-0.019738 -0.0134424 -0.00351862 0.0060972 0.0115526 0.0107043 0.00423625 -0.00449836 -0.0109849 -0.0118838 
-0.00694377 0.00067763 0.00617836 0.00610004 0.00078133 -0.00556198 -0.00751057 -0.00240387 0.00721157 0.0147738 
0.0142778 0.00514915 -0.00657565 -0.0123434 -0.0079388 0.00265223 0.0101683 0.00825341 -0.000553012 -0.00727544 
-0.00572674 0.00115624 0.00507257 0.0024702 -0.00214293 -0.0025116 7.51137e-05 0.00138133 0.000407147 -0.000582402 
0.00031311 0.00105812 0.000414328 -0.000867936 7.53156e-05 -0.00126787 -0.000911418 0.000536658 0.000471934 0.000184374 
-0.00030248 -0.000210894 0.000128499 0.000205672 0.000805493 0.000645879 -0.000431796 -0.000753522 -0.000653482 -0.00122905 
-0.00251822 -0.00342367 -0.0037317 -0.00428343 -0.00488404 -0.00459154 -0.00370428 -0.00354664 -0.00379966 -0.00347514 
-0.00249248 -0.00127131 -0.000575573 -0.000856504 -0.00195715 -0.00331236 -0.00443414 -0.0052462 -0.00609508 -0.00738005 
-0.00935228 -0.0119748 -0.0150197 -0.0181428 -0.0210139 -0.0233242 -0.0248087 -0.0251766 -0.0242005 -0.0216814 
-0.0176105 -0.012222 -0.00602565 0.0001714 0.00548214 0.00907747 0.010501 0.00981286 0.00762739 0.00492884 
0.00267977 0.00141802 0.000986286 0.00062085 -0.000563179 -0.00292572 -0.00579128 -0.00759 -0.00662128 -0.00227901 
0.00417001 0.00976825 0.0113714 0.0076062 0.000156902 -0.00680952 -0.00899402 -0.00476696 0.00346185 0.0105372 
0.0117456 0.0061244 -0.00279432 -0.00905555 -0.0085342 -0.00188813 0.00554504 0.00786042 0.00353657 -0.00303831 
-0.00564263 -0.0024472 0.00219434 0.00309888 0.000301833 -0.00179212 -0.000764993 0.000212452 0.000600261 0.000392912 
0.00036145 -0.00085409 -0.00114199 -0.000171172 0.000970945 7.4822e-05 0.00163047 0.00106451 -0.000346877 -0.000516193 
-0.000453887 -3.34013e-05 -0.00010578 0.000290877 0.000608775 -0.000749011 -0.0016631 -0.00148618 -0.00169044 -0.00229031 
-0.00231209 -0.0013081 -0.000351642 0.000290616 0.00169152 0.00405408 0.00598879 0.00739342 0.00976984 0.0129601 
0.0161246 0.0187364 0.0206445 0.0221441 0.0235333 0.0247673 0.025397 0.0247778 0.0225881 0.0189518 
0.0142223 0.00882373 0.00310615 -0.0026643 -0.00822672 -0.0132203 -0.0171925 -0.0195983 -0.0199914 -0.0180808 
-0.014001 -0.00829536 -0.00200347 0.00350846 0.0068581 0.00698129 0.00366433 -0.00225164 -0.00878832 -0.0133249 
-0.0134479 -0.00802289 0.00193418 0.0131697 0.0211117 0.021755 0.01376 -0.000333696 -0.0146569 -0.0225749 
-0.0201064 -0.00844497 0.00625154 0.0160782 0.0160012 0.00705247 -0.00428613 -0.0102707 -0.00718397 0.00224773 
0.01075 0.0119209 0.00476958 -0.00543835 -0.0111979 -0.00840218 0.000346479 0.00764816 0.00751356 0.000863939 
-0.00543916 -0.00533191 -0.000244553 0.00334707 0.00179121 -0.00132308 -0.00115198 0.000286276 0.00013332 -0.000336842 
-0.000247903 -0.000390479 0.00128435 0.00165812 0.000489623 -0.000702044 -7.54499e-05 -0.00167686 -0.00104128 -1.20341e-05 
-8.59074e-05 -0.000261618 -0.000211568 0.000532069 -0.000425005 -0.00180183 -0.00105997 -0.000185581 7.35352e-05 0.000682579 
0.00213416 0.00385519 0.00512572 0.00681509 0.00953109 0.0121708 0.0137857 0.0158751 0.0187428 0.0210415 
0.0227455 0.0242302 0.025862 0.0277778 0.0298654 0.0319253 0.0337943 0.0355357 0.0374805 0.0396169 
0.0415188 0.0424699 0.0416824 0.0384711 0.0325719 0.0240591 0.0134962 0.00184165 -0.00958837 -0.0192312 
-0.0255556 -0.0272828 -0.0238672 -0.0157069 -0.0044013 0.00744643 0.0167225 0.0206366 0.0177331 0.00862405 
-0.00383389 -0.0152517 -0.0212471 -0.0192516 -0.00990739 0.00290411 0.0135377 0.0172542 0.0126344 0.00253073 
-0.00741897 -0.0118491 -0.00882422 -0.000837793 0.00682219 0.00960411 0.00646431 0.000320531 -0.00436393 -0.00462785 
-0.000955188 0.00340244 0.00473925 0.00151717 -0.00431389 -0.00832245 -0.00674679 -0.000141031 0.00596915 0.00596302 
-1.54392e-05 -0.00535452 -0.00435238 0.000825176 0.00331701 0.000448223 -0.0016922 -0.000518074 0.000833162 7.96281e-05 
-0.000229532 0.000769761 0.000730593 -0.00113328 -0.00184883 -0.000673379 0.000661762 0.000300664 0.00157138 0.000287099 
-0.00092266 -0.000612532 0.000343187 0.000302265 -0.00126137 -0.000508114 0.00140455 0.00189527 0.00243317 0.00366494 
0.00547843 0.00705586 0.00821876 0.00971 0.0111692 0.0112943 0.0107329 0.010872 0.0103595 0.00907162 
0.00806198 0.00737869 0.00685416 0.00637143 0.00608535 0.00623984 0.00702697 0.00874647 0.0114195 0.0146193 
0.0180157 0.0214437 0.0248098 0.0280189 0.0309055 0.0329221 0.0335349 0.0320667 0.0281331 0.0217159 
0.0133326 0.00407505 -0.00461743 -0.0111509 -0.0143428 -0.0136879 -0.00976658 -0.00406563 0.00135414 0.00465649 
0.00493729 0.00269265 -0.000409995 -0.00232917 -0.00183828 0.000747374 0.00357069 0.00445806 0.00230512 -0.00183348 
-0.00536602 -0.00577161 -0.00261792 0.0020239 0.00493785 0.00431746 0.0011393 -0.00171458 -0.00208127 -0.000416865 
0.00100652 0.000551361 -0.001101 -0.00228061 -0.00254298 -0.00295418 -0.00386184 -0.00335297 -0.00018916 0.00336133 
0.00313364 -0.00129199 -0.00470742 -0.00294177 0.00167653 0.0024125 -0.000302964 -0.00137682 -0.00012915 0.000434025 
2.56159e-05 0.000574406 -0.000759727 -0.000733441 0.00107636 0.00224067 0.00107767 -0.000663496 -0.00125257 -0.00289364 
-0.0013123 0.00062456 0.00101409 -0.000128372 -3.21988e-05 0.0024345 0.00312865 0.00302995 0.00391982 0.00500306 
0.00594205 0.00558747 0.00431122 0.00306829 0.00110602 -0.00235934 -0.00563489 -0.00880705 -0.0129387 -0.0165945 
-0.0197619 -0.0230827 -0.0263876 -0.0291819 -0.0310022 -0.031773 -0.0314766 -0.0299978 -0.0275864 -0.0243507 
-0.0201393 -0.0149082 -0.00896446 -0.00268614 0.00324701 0.00813292 0.0115395 0.0130473 0.0127042 0.0107197 
0.00766747 0.00436603 0.00176392 0.000781761 0.00195126 0.00518586 0.00950966 0.013224 0.0142908 0.0112088 
0.00382544 -0.00606939 -0.0150767 -0.0193457 -0.0165 -0.00712041 0.00485562 0.0138287 0.0153496 0.00894308 
-0.00133269 -0.00911296 -0.00981569 -0.00380074 0.00393131 0.00749271 0.00484293 -0.000902199 -0.00428504 -0.0028857 
0.000750535 0.00188936 -0.0010039 -0.00470211 -0.00527351 -0.002699 -0.0008375 -0.00158672 -0.00233482 -0.00041823 
0.0025126 0.00188223 -0.00211497 -0.00453661 -0.00170245 0.00175029 0.00135701 -0.00061796 -0.000556275 0.000210203 
1.04943e-05 2.65984e-05 -0.000624565 0.000855565 0.000857613 -0.000837372 -0.00264405 -0.00209701 -0.000753892 0.000284366 
0.00264 0.00204318 0.000719235 0.000444668 0.00224155 0.00324596 0.00218154 0.00232951 0.00232152 0.00158144 
-5.56968e-05 -0.00348986 -0.006833 -0.00955737 -0.0136354 -0.0186519 -0.0225436 -0.0265591 -0.0303133 -0.0330074 
-0.0359037 -0.038753 -0.0409376 -0.0423417 -0.0432758 -0.0441381 -0.0448189 -0.0452132 -0.045335 -0.0447796 
-0.0431834 -0.0404087 -0.0364618 -0.0311003 -0.024557 -0.016918 -0.00874437 -0.000986719 0.00533056 0.00895438 
0.00914181 0.00571036 -0.000528778 -0.00785395 -0.0138629 -0.0162085 -0.0133252 -0.00536076 0.00563336 0.015979 
0.0216978 0.0201542 0.0115227 -0.000859215 -0.0117327 -0.0163754 -0.013133 -0.00452033 0.00418799 0.00805657 
0.00579471 0.000363912 -0.00318834 -0.00203025 0.00231465 0.00497888 0.00268816 -0.00311878 -0.00683079 -0.00437874 
0.00221649 0.00612155 0.00258629 -0.00508951 -0.00888323 -0.00470661 0.00230022 0.00377855 -0.000620018 -0.00412565 
-0.00171951 0.00239274 0.00190452 -0.00260356 -0.00386103 -0.000585577 0.00169849 0.00032032 -0.000743716 -6.02082e-05 
2.83858e-05 -2.91595e-05 5.54862e-05 0.000712122 -0.000845044 -0.000987164 0.000220885 0.0019464 0.00143334 0.000603925 
0.000328321 -0.000933134 2.68854e-05 0.00135414 0.00205995 0.000918275 4.0266e-05 -0.00052036 -0.00292611 -0.00512366 
-0.0084717 -0.0126201 -0.014986 -0.0174089 -0.0214938 -0.0240803 -0.0245071 -0.0247959 -0.0238768 -0.022609 
-0.0215296 -0.01972 -0.0176264 -0.0158305 -0.0147906 -0.0144779 -0.0145933 -0.0153411 -0.0167031 -0.0184395 
-0.0203725 -0.0224203 -0.0241389 -0.02494 -0.0246927 -0.0228532 -0.019607 -0.0150414 -0.00959625 -0.00409586 
0.000631985 0.0035052 0.00386281 0.00150891 -0.00283393 -0.00771656 -0.0111272 -0.011469 -0.00804513 -0.00192997 
0.0045615 0.00850874 0.00816986 0.00387191 -0.00163007 -0.00483036 -0.00344068 0.00153105 0.0063219 0.00655691 
0.00101913 -0.00701001 -0.0111445 -0.00712219 0.00346783 0.0128487 0.0131073 0.00298963 -0.0097343 -0.0140257 
-0.00601434 0.00680468 0.0114979 0.00335534 -0.00869537 -0.011476 -0.00191352 0.0079084 0.00723808 -0.00115884 
-0.00559846 -0.00171554 0.0030206 0.000889437 -0.00346949 -0.00319523 0.000614115 0.00147976 -0.000257214 -0.000387819 
0.000218486 6.23727e-05 8.91643e-05 -0.0001467 -0.000752333 0.000718385 0.000575022 -0.000841956 -0.00267025 -0.00141811 
0.000699651 0.00194039 0.00282008 0.00134406 -0.000119897 -0.0014348 -0.00269702 -0.00571185 -0.00836275 -0.00957252 
-0.0126732 -0.0142192 -0.0132718 -0.0133666 -0.0127602 -0.00823407 -0.0029455 0.00207462 0.00794524 0.0132595 
0.0187443 0.0240656 0.0281762 0.0311143 0.0328064 0.0335084 0.0330444 0.0311052 0.0280101 0.0240023 
0.0193784 0.0142178 0.00928578 0.004765 0.000917955 -0.00161491 -0.00285395 -0.00235056 -0.000427131 0.00240418 
0.00523222 0.00682962 0.00621993 0.00286595 -0.00281557 -0.00935355 -0.0144774 -0.0158953 -0.0122194 -0.00416254 
0.00557403 0.0126633 0.0136035 0.00726365 -0.00333603 -0.012536 -0.0144862 -0.00731961 0.00530345 0.0154139 
0.0159339 0.0056462 -0.0087878 -0.0170343 -0.0125589 0.00166283 0.0142844 0.0147665 0.00211256 -0.0124127 
-0.0155439 -0.00411624 0.0103911 0.0127518 0.00132459 -0.0107731 -0.00857253 0.00458349 0.0120287 0.00595063 
-0.00412898 -0.00538475 0.00162953 0.00403707 -0.000578432 -0.00431278 -0.00191573 0.00138113 0.000738737 -0.000387242 
0.000313512 -0.000125363 -0.000109615 -0.000156473 0.000407779 0.000723358 -0.00120268 -0.00142281 0.000512534 0.00377181 
0.00367668 0.00116373 -0.00165205 -0.00361082 -0.00317152 -0.00405653 -0.00665358 -0.00871846 -0.00747511 -0.00718813 
-0.00792161 -0.00394237 0.000985266 0.00472974 0.0115516 0.0203315 0.0269694 0.0335712 0.0399017 0.0449906 
0.0495131 0.0521391 0.053396 0.0537676 0.0531086 0.0517211 0.0493635 0.046413 0.0431528 0.0395276 
0.0353658 0.0304367 0.0252922 0.0193944 0.0135045 0.00817876 0.0039064 0.00171098 0.00176134 0.00435385 
0.0088444 0.0141132 0.0183545 0.019708 0.0166502 0.00910522 -0.00151035 -0.0119329 -0.0184334 -0.0181229 
-0.010693 0.00079859 0.0110818 0.014817 0.00998443 -0.000789204 -0.0109479 -0.0138842 -0.00726081 0.00489092 
0.0141708 0.0136631 0.0029761 -0.0101964 -0.015926 -0.00897497 0.00524072 0.0151618 0.0114587 -0.0031271 
-0.0153344 -0.0133149 0.00185808 0.0139041 0.0103828 -0.0046911 -0.012532 -0.00241327 0.0119951 0.0126257 
0.000530874 -0.00826877 -0.00273552 0.00507408 0.00369929 -0.00258244 -0.00381415 -4.25816e-05 0.00132567 -0.000116167 
0.000140437 -0.000287996 0.000121054 0.00036568 0.000605448 -0.000712694 -0.001499 0.000495289 0.00186033 0.000893054 
-0.00264517 -0.00438252 -0.00363217 -0.00178029 -0.00125994 -0.00429216 -0.00578545 -0.00322934 0.00028993 0.000861409 
0.00505588 0.0134881 0.0189998 0.0244623 0.0324114 0.0379613 0.0409031 0.0437349 0.0441532 0.0430093 
0.0403976 0.0362789 0.0324584 0.0283227 0.0242528 0.02077 0.0178458 0.015924 0.0144213 0.0132326 
0.011844 0.0103778 0.00885488 0.00638349 0.00387628 0.000796806 -0.00236489 -0.00498881 -0.00663569 -0.00629437 
-0.00367106 0.00133541 0.00771364 0.0139305 0.0176803 0.0173797 0.0121915 0.00367272 -0.00537426 -0.0109046 
-0.0104308 -0.00383948 0.00528592 0.0117355 0.0109659 0.00270137 -0.00874326 -0.015973 -0.0137811 -0.00236971 
0.0111689 0.0180082 0.0126616 -0.00141571 -0.014725 -0.0171579 -0.00679138 0.00848761 0.0161205 0.00876128 
-0.00692352 -0.0168495 -0.0097709 0.00705493 0.0155548 0.00636161 -0.00996949 -0.010886 0.00492611 0.0153606 
0.00853136 -0.00634403 -0.00793515 0.00228342 0.00670261 0.00107763 -0.00377587 -0.00170734 0.00124399 0.000263048 
-0.000151597 -0.000132783 0.000578458 0.000394474 -8.43996e-05 -0.00133835 -7.79335e-05 0.00109056 -4.45605e-05 -0.00153247 
-0.00163696 0.000147278 0.000960859 -0.000284964 -0.0030737 -0.00454143 -0.000480561 0.00497792 0.00773522 0.0107142 
0.0190618 0.0251237 0.0267407 0.0298418 0.0314616 0.0283001 0.0239025 0.0177854 0.00930353 0.00112729 
-0.00752815 -0.0148508 -0.020528 -0.0256012 -0.0283947 -0.0293701 -0.0287385 -0.0268678 -0.0245266 -0.0213575 
-0.018246 -0.0147541 -0.0120216 -0.0104999 -0.00971019 -0.0108321 -0.0128554 -0.015643 -0.0182375 -0.0194474 
-0.0182532 -0.0139028 -0.0065268 0.00263183 0.011126 0.0162535 0.0155227 0.00886087 -0.00187339 -0.0117891 
-0.0163567 -0.0122091 -0.00101612 0.0122059 0.0198022 0.0172531 0.00494489 -0.010101 -0.0193722 -0.0169609 
-0.00482421 0.00938934 0.0163683 0.0120392 4.70708e-06 -0.011166 -0.0131526 -0.00514161 0.00717511 0.0124326 
0.00622543 -0.00680936 -0.0130872 -0.00437994 0.00920478 0.012603 -0.000419261 -0.012589 -0.00481462 0.0098642 
0.0122322 -0.00160593 -0.0109567 -0.00302629 0.00700512 0.00492592 -0.00206907 -0.0026788 0.000828816 0.000732563 
-0.00039511 0.000301299 0.000720034 -6.9121e-05 -0.000567738 -0.00094035 0.000528228 -0.000564962 -0.00137693 -0.000660509 
-4.0966e-05 -0.00119056 -0.00315136 -0.0035553 -0.00151949 0.00317594 0.00933657 0.0123792 0.0142015 0.0184966 
0.0225374 0.0199055 0.0162167 0.0124765 0.00387264 -0.00689794 -0.0173458 -0.0291607 -0.0390701 -0.046723 
-0.0530493 -0.0557141 -0.0568905 -0.0558072 -0.0517004 -0.0469261 -0.0411646 -0.0353927 -0.0293735 -0.0230976 
-0.0175633 -0.0119632 -0.0079196 -0.00444622 -0.00212599 -0.00179632 -0.00273971 -0.00593321 -0.0105473 -0.0160437 
-0.0207347 -0.0230554 -0.0211141 -0.0146812 -0.0044876 0.00647168 0.0144677 0.0162127 0.0103808 -0.000561947 
-0.0119209 -0.0175604 -0.0145417 -0.00378114 0.00869605 0.016218 0.0144547 0.00519106 -0.00564276 -0.0114044 
-0.00941267 -0.00257125 0.00429511 0.00655372 0.00465817 -0.000115961 -0.00372554 -0.00503081 -0.00178075 0.0035855 
0.00634457 0.00286503 -0.00560332 -0.0069213 0.0010718 0.0102466 0.00784161 -0.00710206 -0.00978481 0.00251805 
0.0117222 0.00342636 -0.0111501 -0.0097128 0.00362147 0.00765679 0.000664223 -0.00300745 0.000261311 0.00142648 
-0.00053499 0.000649198 0.000434279 -0.000525476 -0.000582543 -0.000660698 -0.000164941 -0.00162344 -5.13261e-05 0.000639239 
-0.00082668 -0.00209623 0.000425204 0.0048408 0.00815713 0.0100718 0.0114724 0.0116887 0.0124711 0.0119223 
0.00682247 -0.00166601 -0.00934676 -0.0204186 -0.033168 -0.0433193 -0.052603 -0.0593965 -0.060845 -0.0607272 
-0.0572488 -0.0503853 -0.0432788 -0.033703 -0.0244683 -0.0168455 -0.00941 -0.00357379 0.00202611 0.00628683 
0.00963585 0.0128904 0.0149066 0.0175526 0.0190035 0.0197643 0.0193818 0.0166867 0.0119877 0.00494 
-0.00310617 -0.0109421 -0.0159105 -0.0168032 -0.012082 -0.00358913 0.00629074 0.0129231 0.0133919 0.00680295 
-0.00367724 -0.0127861 -0.0153227 -0.00998116 0.000153673 0.00861267 0.0106701 0.00570534 -0.00120397 -0.00512401 
-0.0030765 0.000726727 0.00286264 0.000443534 -0.00196756 -0.00177511 0.00151758 0.0030164 0.000372169 -0.00170599 
-0.000693434 0.00384883 0.00227271 -0.00314344 -0.00348865 0.00230712 0.0094896 0.00115859 -0.00923457 -0.00443191 
0.00733811 0.00695745 -0.00729263 -0.0139499 -0.0028479 0.00731463 0.00353236 -0.00262315 -0.000769811 0.00229401 
-0.000651701 0.000722806 9.46818e-06 -0.000675344 -0.000529564 -0.000880035 -0.000813313 -0.000888916 0.00146387 -0.000144546 
-0.00141778 0.0010394 0.00578679 0.00671502 0.00486744 0.00451196 0.00630862 0.00610873 0.00224607 -0.00553638 
-0.0147445 -0.0240092 -0.0344026 -0.0453748 -0.0508078 -0.0530594 -0.0531144 -0.0463149 -0.0363837 -0.0264895 
-0.013013 -0.000997751 0.00899178 0.0184262 0.0231419 0.0263469 0.0280662 0.0274926 0.026808 0.0244514 
0.0229178 0.0215241 0.0204745 0.0210647 0.0214595 0.0234228 0.0249838 0.0258435 0.0248266 0.0210098 
0.0141966 0.00496387 -0.00442741 -0.0117141 -0.0134895 -0.00956216 -0.000235359 0.00951532 0.0159093 0.0144947 
0.00658347 -0.00447508 -0.0115656 -0.0115368 -0.0043163 0.00355876 0.0068979 0.00265926 -0.00367083 -0.00659731 
-0.00140988 0.00618538 0.00924469 0.00266515 -0.00753966 -0.0107117 -0.00326302 0.00854396 0.00961414 0.00106797 
-0.00830695 -0.00527945 0.00413423 0.00454374 0.0003117 -0.00375139 0.00313226 0.00593684 -0.00317489 -0.00646973 
0.00236031 0.00741768 -0.00227063 -0.0135239 -0.00835917 0.00428787 0.00519156 -0.00163582 -0.00246951 0.00294091 
-0.000715924 0.000535766 -0.000249983 -0.000655489 -0.000693307 -0.00112929 -0.000588995 0.00052258 0.00160984 -0.000810781 
0.00104357 0.0051479 0.00634831 0.00316257 0.00226142 0.00450539 0.00417266 -0.00331404 -0.0141551 -0.0234351 
-0.0303089 -0.0377962 -0.043887 -0.0425656 -0.0350418 -0.0272294 -0.0140352 0.00375584 0.0174551 0.0301313 
0.0416184 0.0457139 0.047536 0.0455457 0.0390128 0.0332635 0.0251318 0.0172634 0.0107247 0.00427114 
0.000596146 -0.00298905 -0.00435753 -0.00429753 -0.00305229 0.00069451 0.00473043 0.0101347 0.0144889 0.0174475 
0.0167382 0.0124727 0.00465252 -0.00417352 -0.0108131 -0.0126416 -0.00794932 0.000425855 0.00920185 0.0123874 
0.00913733 0.000488412 -0.00653789 -0.00764931 -0.0008084 0.00765358 0.0109473 0.00384968 -0.00852709 -0.0167028 
-0.0117127 0.00417857 0.0179245 0.017379 3.99599e-06 -0.0166868 -0.0185583 -0.000427797 0.0159154 0.014065 
-0.0031029 -0.0150127 -0.00492379 0.00562911 0.00685767 -0.0024098 -0.00475436 0.00286595 0.00169997 -0.00530874 
-0.00172329 0.00621217 0.0023566 -0.00965718 -0.0105066 0.0010796 0.00571626 0.000118813 -0.00463435 0.0028464 
-0.000584664 0.000193118 -0.00022835 -0.000704852 -0.000941961 -0.000926003 0.000235919 0.0014666 0.00106843 5.95646e-05 
0.00360619 0.00481722 0.00208044 -0.00054417 8.2111e-05 -0.00187321 -0.0102835 -0.0215641 -0.0282888 -0.0298329 
-0.0306489 -0.0306967 -0.0228989 -0.00732841 0.00722826 0.0217883 0.0408611 0.0541483 0.0591468 0.062831 
0.0587941 0.048201 0.0377938 0.0228001 0.00858229 -0.00300566 -0.0150866 -0.0222237 -0.0278176 -0.0313345 
-0.0322578 -0.0332871 -0.0316604 -0.030575 -0.0278635 -0.0242898 -0.0197492 -0.0129214 -0.00587001 0.00194229 
0.0069671 0.00920456 0.00597422 -0.000114648 -0.00770442 -0.0119056 -0.0106294 -0.00351764 0.0057099 0.0112759 
0.00913482 -0.00043602 -0.011157 -0.0150081 -0.00739535 0.00803874 0.0203314 0.0196707 0.0035599 -0.0162846 
-0.0260567 -0.0146588 0.00746456 0.0249394 0.0185018 -0.00371158 -0.0230738 -0.0178043 0.00656664 0.0204317 
0.0110572 -0.0132826 -0.0150692 0.000611708 0.0110688 0.00438161 -0.00726352 -0.0039784 0.00338428 -0.00126688 
-0.00450534 0.00221869 0.00445172 -0.00466398 -0.00941783 -0.000276274 0.00604408 0.00310115 -0.00616985 0.00173601 
-0.000122859 -0.000224076 1.25063e-05 -0.000923954 -0.00097126 -0.000258396 0.000987714 0.00168333 0.000646291 0.00127446 
0.00339942 0.00133257 -0.00156004 -0.00277327 -0.00528609 -0.0121368 -0.0194147 -0.0222426 -0.019655 -0.0154526 
-0.010749 -0.000273997 0.0181241 0.0356896 0.0479768 0.0612243 0.070091 0.0658491 0.0572855 0.0458526 
0.0259227 0.00793444 -0.00801543 -0.0246452 -0.0336451 -0.040151 -0.0433967 -0.0413221 -0.0401823 -0.0360925 
-0.03225 -0.0286844 -0.0247778 -0.0235962 -0.0214393 -0.021104 -0.0190581 -0.0160283 -0.0113392 -0.00462317 
0.00155494 0.00658856 0.00644878 0.00283404 -0.00514578 -0.0111926 -0.0134314 -0.00729742 0.00308847 0.0136879 
0.0155209 0.00726592 -0.00903072 -0.0216361 -0.0228513 -0.00792496 0.0122082 0.0266605 0.021556 0.00287103 
-0.0196856 -0.0250278 -0.0119393 0.012499 0.0247042 0.0136601 -0.0104579 -0.0254714 -0.00960032 0.0143645 
0.0223938 -0.000687555 -0.0201815 -0.00988559 0.00949753 0.0116806 -0.00301563 -0.00980477 -0.000238592 0.00317218 
-0.00297942 -0.00191496 0.00322008 -0.00117545 -0.00780937 -0.000520037 0.00658329 0.00754233 -0.00550255 0.000132668 
0.000617882 -0.000706975 0.000399524 -0.00125708 -0.000640965 0.000456736 0.00121673 0.00143823 0.000348606 0.00134472 
0.000767484 -0.00209821 -0.00400598 -0.00673836 -0.0121037 -0.0156993 -0.0146998 -0.0111333 -0.0059305 0.00204303 
0.0148475 0.0329428 0.0502765 0.0598648 0.0646025 0.0655787 0.0540355 0.0345795 0.0170477 -0.00393206 
-0.0236965 -0.0331852 -0.0405367 -0.0416565 -0.0347995 -0.0290253 -0.0194058 -0.0108883 -0.00517393 0.0019925 
0.00502567 0.0082477 0.00876453 0.00755748 0.00644471 0.00257133 0.000700806 -0.00248625 -0.00230797 -0.000285557 
0.00431954 0.00891744 0.0106851 0.00831662 -2.17113e-05 -0.00905905 -0.016265 -0.0135883 -0.00342128 0.0128425 
0.0228148 0.0222558 0.00667421 -0.0125821 -0.0269366 -0.0234085 -0.00746937 0.0141997 0.0236292 0.0183213 
-0.000539514 -0.0168484 -0.0196131 -0.00676089 0.0136749 0.0194601 0.00882362 -0.0153049 -0.0197984 -0.00140483 
0.020219 0.0149506 -0.0125403 -0.0182541 0.002577 0.0151707 0.00455211 -0.00989056 -0.00551058 0.00448678 
0.00144546 -0.00327379 0.000324441 0.000848809 -0.00640304 -0.00143385 0.00546731 0.0115773 -0.00187886 -0.000588783 
0.00118448 -0.00120022 0.000842732 -0.00163842 -5.75569e-05 0.000822514 0.000981696 0.00100962 -0.000267078 7.37583e-06 
-0.00223749 -0.00391253 -0.00595451 -0.00989877 -0.0119787 -0.00764154 -0.00216906 0.00257251 0.0122331 0.0281695 
0.0449164 0.0570992 0.0611031 0.0570676 0.047543 0.0296313 0.00454039 -0.0159909 -0.0313841 -0.0439381 
-0.0433088 -0.0339598 -0.0232211 -0.00448484 0.0125705 0.0248033 0.036806 0.040433 0.0423482 0.0414336 
0.0362511 0.0332588 0.027254 0.0238857 0.0195083 0.0145293 0.010678 0.0047408 0.00297802 0.00193769 
0.00616978 0.0106984 0.0158679 0.015555 0.00885499 -0.00368662 -0.0171938 -0.0231884 -0.0184056 -0.00189497 
0.0160739 0.0273555 0.0228059 0.0074034 -0.0114785 -0.0203521 -0.0169288 -0.00412092 0.00803978 0.0125011 
0.00994835 0.000348735 -0.00584785 -0.0110135 -0.00296165 0.00573455 0.0126122 0.00275302 -0.0130336 -0.0112244 
0.00669111 0.0188292 0.000989323 -0.0195319 -0.00707469 0.0139202 0.010964 -0.00657632 -0.00929987 0.0026934 
0.00572852 -0.000906407 -0.00196129 0.00157176 -0.00462764 -0.00209888 0.00257334 0.012055 0.00225879 0.000645283 
0.00116208 -0.00157616 0.00126059 -0.00201456 0.000575951 0.000690262 0.00053388 0.000410949 -0.0013616 -0.00175891 
-0.00387808 -0.00415171 -0.00682662 -0.00854929 -0.00398319 0.00461248 0.00961944 0.0172446 0.0326863 0.046894 
0.0508063 0.0458823 0.035304 0.0191055 -0.00265273 -0.02699 -0.044603 -0.0512855 -0.0513926 -0.0400456 
-0.0162843 0.0063101 0.0295647 0.0523193 0.062703 0.068582 0.067812 0.0581496 0.0497276 0.0359309 
0.0244291 0.016207 0.00767015 0.00516374 0.000685937 -0.000387445 -0.00285404 -0.00609149 -0.00726012 -0.00830955 
-0.00317446 0.00315728 0.0140958 0.0196315 0.0203573 0.00939532 -0.00582476 -0.0212249 -0.0258317 -0.0186656 
-0.00186024 0.0129917 0.0188918 0.0124342 0.00246942 -0.0053725 -0.00388469 -0.00192641 0.000437201 -0.00489704 
-0.00353985 -0.0012941 0.00788816 0.00518326 -0.00161445 -0.00661625 -0.00179162 0.00802379 0.000726475 -0.00837415 
-0.00425872 0.0110669 0.0115587 -0.0112341 -0.0147349 0.00773422 0.0151773 -0.00183147 -0.0112738 -0.000600879 
0.00731547 0.00239837 -0.0025917 0.00195709 -0.00230308 -0.00177033 0.000282266 0.00939067 0.00324203 0.00276227 
0.000613524 -0.00171083 0.00154946 -0.00236864 0.00108967 0.000166674 0.000125511 -0.000354439 -0.00252729 -0.00277242 
-0.00361125 -0.00304981 -0.00504725 -0.00188944 0.0071939 0.0149182 0.0194115 0.0299108 0.0411126 0.0398629 
0.0277038 0.0132811 -0.00365893 -0.0260294 -0.0483409 -0.0610752 -0.060108 -0.0502094 -0.0313418 -0.00124023 
0.0274032 0.0473403 0.0645887 0.0689832 0.061767 0.053743 0.0370954 0.0213135 0.0091248 -0.00568129 
-0.0117102 -0.0181922 -0.0213438 -0.0202623 -0.0209008 -0.0162995 -0.0167751 -0.0160383 -0.0183229 -0.0194611 
-0.0170262 -0.0109049 0.00230245 0.0139069 0.0239121 0.0202766 0.0105115 -0.00732766 -0.0167669 -0.0189549 
-0.00773133 0.00159818 0.00736191 -0.00016087 -0.00551197 -0.00784457 0.00508379 0.0138303 0.0164062 -0.00153535 
-0.016493 -0.0195241 -0.000977962 0.0178021 0.013723 -0.00231402 -0.0163949 -0.00343119 0.00882612 0.00241458 
-0.00564112 -0.00124076 0.0101923 0.000142619 -0.014777 -0.00114847 0.0155786 0.0039226 -0.0119456 -0.00447311 
0.0072906 0.00502689 -0.00319008 0.00113287 0.000465211 -0.00056373 -0.000256201 0.00715829 0.000707621 0.00337663 
5.35164e-05 -0.00158962 0.00165126 -0.00266668 0.0014132 -0.000529 -0.000108455 -0.00115388 -0.00310911 -0.00239008 
-0.00173006 -0.000741578 -0.000577287 0.00659834 0.0155336 0.0201114 0.0241352 0.0306101 0.027713 0.0120085 
-0.00586914 -0.0231893 -0.0446926 -0.066138 -0.0752909 -0.0679891 -0.0504586 -0.0273263 0.00297223 0.0305477 
0.0423511 0.0445471 0.0386645 0.0189044 0.00133487 -0.0131068 -0.0281669 -0.0304543 -0.0316502 -0.0305317 
-0.0234407 -0.0226536 -0.0170583 -0.014581 -0.0116789 -0.0065928 -0.00733756 -0.00597126 -0.0120587 -0.0157169 
-0.0213317 -0.0200162 -0.0121742 0.00101181 0.0150141 0.0192531 0.0162338 0.00240963 -0.00593092 -0.00905603 
0.00211352 0.010282 0.013201 -0.00237291 -0.0181209 -0.0275752 -0.0117233 0.0127991 0.0319039 0.022821 
-0.00717778 -0.029195 -0.0251549 0.00967703 0.0259121 0.0155281 -0.0145273 -0.0209262 0.00333692 0.012261 
0.00216687 -0.00638018 0.00154657 0.00570702 -0.00790978 -0.00765242 0.0107084 0.00932233 -0.00959319 -0.0086698 
0.00545665 0.00747334 -0.00297569 -0.00191532 0.0021304 0.000947742 -0.000412792 0.00739914 -0.00185946 0.00136854 
-0.000110227 -0.00130038 0.00154476 -0.00288842 0.00156521 -0.00114849 -7.71124e-05 -0.00171936 -0.00268403 -0.000793484 
0.000960954 0.00223045 0.00478682 0.0128213 0.0183505 0.0194946 0.0199641 0.0155809 -0.000200866 -0.0202197 
-0.0380555 -0.0576221 -0.0756743 -0.0803665 -0.0668153 -0.042966 -0.0175369 0.00772592 0.0273492 0.0276346 
0.0111727 -0.00936706 -0.0365237 -0.0619922 -0.0711493 -0.0740322 -0.0648915 -0.0429633 -0.0262643 -0.00568615 
0.00922826 0.0154506 0.0222798 0.019165 0.0202407 0.0188413 0.0167561 0.0158637 0.00756553 0.0014877 
-0.0116962 -0.0159587 -0.0173278 -0.00662877 0.00390444 0.011783 0.00865429 -0.00307938 -0.0138442 -0.0144195 
0.0011655 0.0211098 0.0322638 0.020905 -0.00632742 -0.031937 -0.0358643 -0.0112566 0.0197856 0.038376 
0.0175058 -0.0133636 -0.0371077 -0.0142793 0.0199435 0.0286698 0.00311416 -0.0276528 -0.0120036 0.0140528 
0.0115564 -0.00463808 -0.00636275 0.00367146 -0.000196201 -0.00733882 0.00384956 0.0104041 -0.00505015 -0.0106119 
0.00228318 0.00851591 -0.000676473 -0.00546263 0.00150024 0.0024906 -0.00155803 0.00798832 -0.00138754 -0.00188279 
0.000106574 -0.000956831 0.0012563 -0.00300069 0.00162344 -0.00151827 0.000217056 -0.00186974 -0.0013249 0.00133361 
0.00363359 0.00497839 0.00866584 0.0141799 0.0150564 0.0121096 0.00547952 -0.00930202 -0.0287474 -0.0457649 
-0.0620563 -0.0758792 -0.0752222 -0.0569643 -0.0306178 -0.00606854 0.0121219 0.0203262 0.0101972 -0.0189224 
-0.0515069 -0.0805088 -0.105645 -0.111327 -0.0983502 -0.0777626 -0.0426628 -0.00912086 0.0150439 0.0388461 
0.0462934 0.0490084 0.0455835 0.0343609 0.031093 0.0228378 0.0226915 0.0202597 0.0168936 0.0118425 