# vtk DataFile Version 2.0
Titre
ASCII
DATASET STRUCTURED_POINTS
DIMENSIONS 100 100 1
ORIGIN 0.0 0.0 0.0
SPACING 0.1 0.1 0.0
POINT_DATA 10000 
SCALARS rho float
LOOKUP_TABLE default
0.00226387 0.00294442 0.00275331 -0.000680992 -0.00107868 -0.000620023 -0.00082729 -0.000405208 0.00138608 0.00126223 
-0.000123773 -0.000841302 0.000278078 0.00094194 -0.000273935 -0.000913445 -0.0004459 0.000405981 0.000316087 -0.000199889 
-0.00046731 -1.36276e-05 0.000664588 0.000375941 -0.000478751 -0.000962568 -0.000635697 7.11209e-05 0.000919457 0.00126607 
0.00121934 0.000787009 -6.49652e-05 -0.00124517 -0.00233635 -0.00305552 -0.00284332 -0.00175542 1.32234e-05 0.00192609 
0.00345346 0.00418797 0.00405654 0.0030901 0.00167131 3.64439e-05 -0.00142087 -0.00253705 -0.00317871 -0.00332256 
-0.00307308 -0.0024798 -0.00173146 -0.000873829 -4.69126e-05 0.000728105 0.0014047 0.00196075 0.00241553 0.0027393 
0.00298263 0.00314359 0.0032807 0.00340794 0.00354335 0.00363772 0.00367059 0.00357396 0.00339377 0.00313123 
0.00286941 0.00262522 0.0024787 0.00242543 0.00249829 0.00257665 0.00257236 0.00232126 0.00178706 0.000983798 
7.46999e-05 -0.000807236 -0.00143652 -0.00170802 -0.00151847 -0.000961775 -0.000144627 0.000654367 0.00122275 0.00141026 
0.00119059 0.000824742 0.000440079 0.000332084 0.000399467 7.51762e-05 0.000181219 -7.86675e-07 0.000515407 0.00318011 
-0.000748237 -0.00199742 -0.00374406 -0.00566693 -0.00325359 -0.000792623 0.00141269 0.00314006 0.000869971 -0.00113079 
-0.000583622 0.000461746 0.000833539 -0.000717872 -0.000371681 0.000391223 0.000205606 -0.000159696 5.43541e-05 0.000381409 
2.33705e-05 0.000267808 7.80328e-05 -0.000382453 -0.000515437 -7.18379e-05 0.00040058 0.001186 0.00154001 0.000880113 
-0.000340518 -0.00204565 -0.00339724 -0.00353312 -0.00231299 -4.2917e-05 0.00265876 0.00456262 0.00527653 0.00439511 
0.00227515 -0.000385807 -0.00297416 -0.00475106 -0.005484 -0.00507579 -0.00375677 -0.00188269 0.000166102 0.00204896 
0.00351173 0.00445261 0.00481632 0.00468385 0.00413213 0.0032918 0.00226914 0.00117677 7.12339e-05 -0.000956054 
-0.00191834 -0.00274958 -0.00348271 -0.00410123 -0.00459581 -0.00500305 -0.00528622 -0.00550457 -0.00562819 -0.00570187 
-0.00568211 -0.00561998 -0.00543737 -0.00517517 -0.00471984 -0.00410512 -0.00324095 -0.00219782 -0.000983607 0.000220597 
0.00131548 0.0020736 0.00238488 0.00216828 0.00152563 0.00062431 -0.000294188 -0.000990151 -0.00135553 -0.00137144 
-0.00107069 -0.000645884 -0.000119964 0.000453495 0.00130939 0.00189159 0.000977111 0.000847447 -0.00339637 -2.02906e-05 
0.000183544 0.00123221 3.47587e-05 0.000904249 0.0038387 0.00274238 0.00255488 -0.000371022 -0.00268157 -0.000132343 
0.00112664 0.000898368 -0.000911437 -0.000740277 0.000982309 0.000114337 -0.000482629 -4.60737e-05 0.000703579 -0.000100267 
-0.000192823 0.000136794 -0.000386576 -0.000434934 8.86832e-05 0.000604932 0.000983251 0.00135017 0.000242041 -0.00098753 
-0.00207365 -0.00246236 -0.00156472 0.000308179 0.00187557 0.00292001 0.0023581 0.000674153 -0.00153241 -0.00349554 
-0.00437118 -0.00385491 -0.00223697 0.000261465 0.0026494 0.00465611 0.00564245 0.00560015 0.0046232 0.00287592 
0.000870991 -0.00126862 -0.00306229 -0.00450647 -0.00539167 -0.00576131 -0.0056851 -0.00516134 -0.00441389 -0.00338959 
-0.00231066 -0.00113338 5.73421e-06 0.00111664 0.00212151 0.00304579 0.00381673 0.00447597 0.00496693 0.00529935 
0.00547396 0.00547154 0.00530572 0.00493795 0.00440781 0.00368451 0.00282958 0.00186607 0.000902341 1.45566e-05 
-0.000675907 -0.00108629 -0.00118333 -0.00100214 -0.000621918 -0.000117815 0.000349721 0.000689274 0.000758907 0.000509732 
1.67989e-05 -0.00046658 -0.000969747 -0.00143373 -0.0014852 -0.000222653 0.000170533 0.00343999 5.16921e-05 0.000503716 
-0.000479227 -0.00128053 -0.00460845 -0.00202409 -0.00230491 -0.00220365 -0.000297734 -0.00147168 0.00136412 0.00228721 
0.000247502 -0.00104001 -0.000965749 0.00144161 0.000606718 -0.000808529 4.80432e-05 0.000917901 0.000192177 -0.000576734 
0.000417589 -0.000128752 -0.000450648 0.000160995 0.000774653 0.000770441 0.00111903 0.000270227 -0.00103501 -0.00136163 
-0.00149301 -0.000807952 0.000385275 0.000803091 0.000558822 -0.000104556 -0.00123295 -0.0014243 -0.000956821 0.00032414 
0.00205177 0.00324609 0.00377607 0.00312948 0.00153425 -0.000573169 -0.00282737 -0.00457695 -0.00560029 -0.0057108 
-0.0048989 -0.00347222 -0.00153564 0.000463021 0.00241549 0.00402342 0.00524037 0.00596896 0.00624405 0.00608974 
0.00558172 0.00482324 0.003836 0.00280939 0.00165323 0.000605068 -0.000461285 -0.0013466 -0.00214937 -0.00273009 
-0.00319375 -0.00340111 -0.00344521 -0.00324295 -0.00286121 -0.00225547 -0.00152207 -0.000651166 0.000213837 0.00103021 
0.00161634 0.00193577 0.00186602 0.0014539 0.00068748 -0.000170134 -0.000947775 -0.00133932 -0.00128973 -0.000945411 
-0.000613332 -0.000330121 0.000116181 0.000295331 -0.000397447 0.000132071 -0.00282579 0.00122017 -0.000696511 -0.000461188 
-4.05272e-05 -0.001517 -0.000529731 0.00359943 0.00296401 0.00508774 0.00297911 0.000467731 0.000679359 -0.00162237 
-0.00138693 -0.000161162 0.00139592 0.000976697 -0.00127581 -0.000217567 0.000905433 0.000219925 -0.000913893 0.000179918 
0.000267004 -0.000770501 6.0322e-05 0.000782214 0.000688371 0.000702462 0.00060703 -0.00091028 -0.000895571 -0.000813409 
-0.000651226 9.72084e-05 0.000456036 -1.92629e-05 0.000146762 -0.000161693 0.000138975 0.000726717 0.000896752 0.000843277 
0.000165341 -0.00109952 -0.0020573 -0.00300936 -0.00291889 -0.00221616 -0.000791458 0.00108651 0.00276832 0.00429925 
0.00499721 0.00513676 0.004467 0.00325742 0.00171461 -8.93895e-05 -0.00169893 -0.00326266 -0.00433275 -0.00514286 
-0.00544998 -0.00541581 -0.0050339 -0.00435953 -0.00351742 -0.00252239 -0.00153635 -0.000519359 0.000331928 0.00115505 
0.00171208 0.00216022 0.00232949 0.00234959 0.0020929 0.00171934 0.00112889 0.000514089 -0.000149212 -0.000643885 
-0.00097167 -0.000990575 -0.000738687 -0.000231178 0.000308128 0.00068897 0.000715463 0.000365768 -7.2146e-05 -0.000394768 
-0.000649586 -0.0011879 -0.00158877 -0.00107681 -0.00185739 0.0015966 -0.0021737 0.000432466 0.000798491 -0.000330878 
-0.00132749 -0.00103432 -0.000305544 0.000532704 -0.00137899 -0.00159808 -0.0043062 -0.0025821 -3.11807e-06 0.000853345 
0.00205403 0.00111138 0.000264319 -0.00116014 -0.000409813 0.00113499 0.000299518 -0.000718219 9.55906e-07 0.000793154 
-0.000714159 -0.000194787 0.000908445 0.000662016 0.000374417 0.000765907 -0.000334543 -0.000840972 -0.000132788 -0.00056267 
-0.000142484 0.000358603 -9.14996e-05 -0.000100601 0.00013477 -0.000309453 0.000125952 -0.000165293 -0.000441933 -0.000404763 
-0.000585566 -4.02941e-05 0.000643193 0.00136487 0.00215748 0.00222626 0.00196515 0.00104228 -0.00030105 -0.00161029 
-0.00300886 -0.00376612 -0.00422722 -0.00395842 -0.00326098 -0.0021699 -0.000798874 0.000530041 0.00187864 0.00287692 
0.0037138 0.00405766 0.0042048 0.00388196 0.00342154 0.00266788 0.00185082 0.000955845 8.08595e-05 -0.00070066 
-0.00135176 -0.00181642 -0.00209113 -0.00212519 -0.00196778 -0.00158798 -0.00105838 -0.000426453 0.000193694 0.000709258 
0.00104133 0.00105717 0.000811215 0.000352561 -7.91746e-05 -0.000370636 -0.000403173 -0.000439054 -0.000550761 -0.000581531 
-0.000202209 0.000111737 -0.000448718 0.000468656 -0.00311626 0.00110889 -0.00145712 -0.0017055 -0.000387586 -0.0002914 
0.000123918 0.000129791 -0.000294428 0.00246778 0.00101165 0.00261438 0.00186522 0.00368244 0.00266461 -0.000236433 
-0.00164907 -0.00198069 -0.000534865 0.000247374 0.000910551 0.000102244 -0.000706435 -0.000193544 0.000588499 -0.000572098 
-0.000780782 0.000820732 0.000573342 0.000170602 0.000681307 0.000424129 -0.000832586 4.14264e-05 -0.000271298 -0.000569317 
0.000241338 5.25737e-05 -0.000402876 0.000324066 -0.000117165 3.53264e-05 0.000378311 1.32872e-05 0.00034572 0.000456259 
0.000253136 0.000534362 -0.000142457 -0.000439587 -0.00112543 -0.0017301 -0.00177355 -0.00178494 -0.000958749 -9.26484e-05 
0.00110392 0.00222342 0.00296835 0.00351721 0.00333033 0.00297309 0.00199844 0.000988242 -0.000222819 -0.00134894 
-0.00223185 -0.00298048 -0.00325233 -0.00340265 -0.00309747 -0.0027401 -0.00205551 -0.00144187 -0.000669178 -7.6231e-05 
0.000527128 0.000888998 0.00117057 0.00117147 0.00106507 0.000680881 0.000241809 -0.000327674 -0.000779584 -0.00115466 
-0.00116627 -0.000968354 -0.000507304 -0.000119398 0.000124094 8.66633e-05 4.92164e-05 0.000120659 6.16658e-05 -0.000398899 
-0.000845951 -0.000502241 -0.00189975 0.00156263 -0.00325835 -0.000499373 0.000211153 -0.000817344 -0.000807678 -0.00011021 
-0.000470175 -0.00257034 0.000634961 0.00205571 -0.0011765 7.60234e-05 -0.00305105 -0.00131825 -0.00244466 -0.00181973 
0.00109097 0.00238021 0.00221887 0.000130765 -0.000756098 -0.000463616 8.88138e-05 0.000370623 -0.000227374 -0.000710076 
0.000693061 0.000736283 0.000110814 0.000612615 0.000755288 -0.000583638 -0.000456443 0.000173011 -0.000792442 9.78315e-05 
0.000411391 -0.000319768 0.000177597 0.000456931 -0.000332672 0.000385475 -9.64688e-05 -0.000268794 4.77115e-05 -0.000473804 
-0.000335288 -0.000330014 -0.000535443 5.10135e-05 0.000136325 0.000783924 0.0012467 0.00134001 0.00157097 0.0009154 
0.000484094 -0.000524447 -0.00135105 -0.00204884 -0.00263899 -0.00260045 -0.00253874 -0.00181857 -0.00118494 -0.000198153 
0.000585323 0.00137439 0.00190477 0.00221302 0.00231453 0.00209958 0.00182132 0.00128843 0.000812772 0.000212801 
-0.000226325 -0.000696199 -0.000905415 -0.00107824 -0.000941027 -0.000755986 -0.000367732 -3.08451e-05 0.000300306 0.000364092 
0.000274993 1.92266e-06 -0.000217477 -0.000301783 -0.000285398 -0.00036976 -0.000718845 -0.000840711 -0.000502753 -3.82465e-05 
-0.000291594 0.00129696 -0.00242702 0.0025638 -0.000567658 -0.0017654 -0.000785235 -0.000569408 -0.000914803 -0.00115097 
-0.00147976 0.00020942 0.0041567 0.00121849 -0.00041839 0.000965983 -0.00061515 0.00343359 0.000916568 0.00148447 
0.000539527 -0.00194674 -0.00272207 -0.00250748 0.00018433 0.000986126 2.85822e-05 -0.000346855 -0.000523868 0.000210182 
0.000433439 -0.000106298 0.000451285 0.000620072 -0.000254357 -0.000710078 0.000416251 -0.000273544 -0.000205502 0.000738262 
-0.000136812 -0.000251484 0.00054282 -0.000426451 -0.000278066 0.000214181 -0.000497359 0.000132246 0.000144678 -0.000145547 
0.000530914 6.89978e-05 0.000380445 0.000374654 -1.45855e-05 0.000102702 -0.000526309 -0.00061132 -0.000853756 -0.000966803 
-0.000579525 -0.000432346 0.000313302 0.000669675 0.00125865 0.00151615 0.00157564 0.00152839 0.00105889 0.000750791 
5.21767e-05 -0.000315846 -0.000889042 -0.00108133 -0.00130711 -0.00121596 -0.00110163 -0.000756201 -0.000419226 3.23443e-05 
0.000426529 0.000792346 0.00102434 0.00110095 0.00100342 0.000773957 0.000402417 8.07081e-05 -0.000188426 -0.000267916 
-0.000319173 -0.000323174 -0.000477622 -0.000544404 -0.000454349 -3.38127e-05 5.13682e-05 -0.000348502 -0.000812356 -0.000509315 
-0.00202611 0.00203575 -0.0033496 -0.000338517 0.000795 -0.00039053 -0.000791226 -0.000503823 -0.000193306 -0.000389668 
9.66593e-05 0.00237625 0.00121189 -0.00224107 -0.00125516 -0.000703402 -0.000817888 0.0010169 -0.0031506 -0.00037929 
-0.000627015 0.00117205 0.0026979 0.00270627 0.00244199 -0.000542605 -0.00107336 -0.00018388 7.208e-06 0.000197211 
-3.68258e-05 0.000615088 0.00057526 -9.865e-05 -0.000376581 0.000248945 0.000194079 -0.000566316 0.000457612 9.6851e-06 
-0.000642539 0.000243416 1.48883e-05 -0.000661406 0.00056783 2.58118e-05 -4.72295e-05 0.000568213 -0.000161406 0.00011376 
0.000151846 -0.000417082 0.000108188 -0.000392372 -0.000206306 1.09397e-05 -0.000182167 0.000443891 0.000208755 0.000573073 
0.000432433 0.000194757 9.61026e-05 -0.000517231 -0.000571707 -0.00107714 -0.00100421 -0.00108259 -0.000829713 -0.000497682 
-0.000136655 0.000367055 0.000627654 0.00103346 0.00106677 0.0012332 0.00100106 0.000925758 0.000503542 0.000287633 
-0.000158818 -0.000318872 -0.000553595 -0.000477035 -0.000432724 -8.99195e-05 8.50842e-05 0.000373869 0.000407261 0.000536203 
0.00054629 0.000678353 0.00060119 0.000236893 -0.00046227 -0.00081551 -0.00060512 -0.000382759 -0.000758729 0.000858641 
-0.00317528 0.00300287 0.000299995 -0.000899691 0.000108077 0.00020743 -0.000310111 -0.000682081 -0.000614271 2.67732e-05 
0.000632358 -0.000169387 -0.000824449 -0.000369813 0.00120226 0.00101581 0.0012422 0.000696436 -0.00127576 0.00206515 
-0.000454711 -0.000390276 -0.00318077 -0.00359378 -0.00279832 -0.00224468 0.000391539 0.000367617 -5.61565e-05 4.66876e-05 
0.000446623 0.000453928 -0.000377475 4.99663e-06 0.00016425 8.86669e-05 -0.000440792 0.000117953 0.000334921 -0.000516273 
0.000150526 0.000513096 -0.00040583 0.000285364 0.000578681 -0.000485775 0.000235908 -2.68702e-05 -0.000503741 0.000239592 
-0.000401213 -0.000112192 0.00010807 -0.000278201 0.00032828 -2.21298e-05 0.000110294 0.000142579 -0.000259344 1.97815e-06 
-0.000422055 -0.000128016 -0.000151203 7.32054e-05 0.000446055 0.000533312 0.000989092 0.000859716 0.00108164 0.000732346 
0.000642263 0.000223772 -3.29465e-05 -0.00037764 -0.000600936 -0.000723204 -0.00078612 -0.00064351 -0.00053173 -0.000213573 
-5.95364e-05 0.00020821 0.000262915 0.000360738 0.000229621 0.000214173 9.55771e-05 0.000107383 1.67062e-07 -0.000114815 
-0.00027379 -0.000286709 0.000130544 0.000712208 0.00091567 0.000386007 -9.54471e-05 -5.76421e-05 -0.00195877 0.00220825 
-0.00432292 -0.00132984 0.000388049 -0.000300127 -0.000285672 0.00017533 0.000291352 8.01483e-05 -0.000301653 -0.00044427 
-0.000372147 -0.000264772 0.00206245 0.000945724 -0.000376504 -0.00108236 -0.00124535 -0.00159619 -0.00094071 0.00109435 
-0.000650725 0.00147069 0.0014788 0.0047954 0.00421863 0.00263915 0.00137601 -0.000572469 -0.000105124 4.45063e-05 
0.000207104 -0.000248217 0.000173839 0.00044792 -0.000355612 -0.000295141 9.00488e-05 0.000262941 -0.000396524 -5.07811e-05 
0.000441483 -0.000331693 -0.00029976 0.000479765 -0.000486624 -0.000358121 0.000317109 -0.000437555 0.000101552 0.000207513 
-0.000308254 0.000435579 2.76686e-05 0.000183658 0.000423009 -0.00012773 0.000324394 -0.000163917 -5.72739e-06 3.32352e-05 
-0.000139538 0.000242926 -8.11068e-05 0.000214446 -7.41903e-05 -7.84891e-05 -0.000236043 -0.000418525 -0.000405181 -0.000612831 
-0.000433577 -0.000590366 -0.000284848 -0.000389535 -9.81666e-05 -0.000204253 -1.89937e-05 -0.000177987 -0.00013254 -0.000287711 
-0.00028864 -0.000427336 -0.000394202 -0.000464857 -0.000408318 -0.000477809 -0.000386377 -0.000285971 6.01294e-05 0.00031743 
0.000520324 0.00012492 -0.000332994 -0.000443966 0.000134443 0.000485302 0.00019309 0.00173415 -0.00314369 0.00348079 
0.000337239 -0.00137174 -0.000299092 0.000115678 -0.000100312 -0.000129896 7.44489e-05 0.000164624 0.000172254 -0.000159283 
-0.000201092 0.0019327 0.00168339 -0.00293547 -0.00209222 -0.000192461 0.000755793 0.00134651 0.00140417 0.00108551 
-0.000732463 -0.00081278 -0.00281396 -0.00299354 -0.00609118 -0.00492883 -0.00291537 -0.00110357 4.62391e-05 -9.01829e-05 
0.00046108 0.000301339 0.000333078 -0.000570338 -0.000288466 0.000526709 0.00021534 -0.000319452 9.86982e-05 0.000471949 
-0.000182912 -0.000274396 0.000495527 -9.1406e-06 -0.000360929 0.000525579 0.000161136 -0.000118495 0.000520746 -0.000187257 
0.000181009 0.000301368 -0.000243634 0.00013297 -0.000352591 -0.000328008 -0.000153438 -0.000455888 6.44196e-05 -0.000205279 
9.35872e-05 4.79364e-05 -1.20298e-05 0.000160992 -0.000109386 0.000185928 -0.000130472 0.000163241 -3.65467e-05 0.000123649 
7.74428e-05 4.22359e-05 9.93672e-05 -5.99088e-05 6.09144e-05 -0.000165092 2.40189e-05 -0.000179222 -4.17468e-06 -0.000147994 
5.92179e-05 -5.1365e-05 0.000177493 0.000102731 0.000322063 0.000171317 7.45928e-05 -0.000370444 -0.000672307 -0.000838319 
-0.000363362 0.00022834 0.000363071 -5.68874e-05 -0.000245037 0.000223718 -0.00121958 0.0039002 -0.00335535 -0.000559171 
0.0009469 -0.000417689 -0.000873784 -0.000397682 -1.38591e-05 1.40617e-06 8.90626e-05 0.000228199 0.000290143 0.0003747 
0.000635453 0.00165038 -0.0019353 -0.00333257 0.00194705 0.00241728 0.0010382 -0.000492752 -0.00155224 -0.000948339 
-0.000839754 0.00056204 0.00199433 0.0041328 0.00452231 0.00645125 0.00474084 0.00244674 0.000762841 0.000772575 
0.000524286 -0.000627661 -0.000563653 7.87769e-05 0.000812425 -5.5941e-05 -0.000682402 4.51046e-05 0.000372713 -0.000466769 
-0.000383057 0.000325566 -2.13655e-05 -0.000488537 0.000288202 0.000150869 -0.000446588 9.16524e-06 -0.00012242 -0.000388945 
0.000131132 -0.000432275 -0.000262719 -6.3542e-06 -0.00027718 0.000374412 7.88427e-05 0.000351423 0.000381656 6.61077e-05 
0.000387996 -7.85297e-05 0.000247425 2.76006e-05 0.000141299 0.000259341 8.38267e-05 0.000353488 6.20131e-06 0.000274175 
-7.18842e-05 0.000124691 -0.000136337 1.20614e-05 -6.13873e-05 3.56421e-05 0.000136283 0.000281277 0.00041792 0.000486392 
0.00055833 0.000442472 0.000362534 0.000106364 6.20518e-05 0.000122023 0.000370744 0.000649392 0.000563087 4.67267e-05 
-0.000689783 -0.000672535 -0.000238983 2.13918e-05 -0.00033081 0.00115568 -0.00406734 0.00367685 0.00097971 -0.000751222 
0.000582114 0.000980047 0.000348064 -0.000156818 -0.00015233 -0.000104934 -0.00013695 2.51343e-05 0.000198353 0.000503255 
0.000539293 -0.000290695 -0.00240282 0.00068242 0.00340527 -0.000839423 -0.00231148 -0.00202892 0.00011047 0.00197878 
0.000882217 0.000461586 -0.000850602 -0.00304414 -0.00557673 -0.00637499 -0.00681387 -0.00458044 -0.00192217 -0.000624903 
-0.00127686 -0.000463099 0.00113105 0.000689873 -0.000885966 -0.000890616 0.000461591 0.000680828 -0.000489909 -0.00016547 
0.0006564 0.000188826 -0.000355087 0.00039571 0.000226911 -0.000371599 2.77249e-05 0.000300022 -0.000158127 0.000297159 
7.90951e-05 5.94173e-05 0.000488644 0.00018328 0.000290793 0.000214506 -0.000213601 5.9886e-05 -0.000382061 -0.000100093 
-0.000120287 -0.000151261 0.000139388 -0.000199092 0.000130111 -0.000243597 2.05952e-08 -0.000102003 -1.26743e-05 0.000182535 
0.000149278 0.0005226 0.000318328 0.000599261 0.000261781 0.00033878 -0.000132354 -0.000100396 -0.000448033 -0.000283527 
-0.000327624 4.66655e-05 0.000216911 0.000448959 0.000247377 6.68522e-05 -0.000365691 -0.000205921 0.000195106 0.000879525 
0.000615685 3.81432e-05 -0.000256393 -7.05728e-05 -0.00139098 0.00404525 -0.00391462 -0.00111886 0.00103142 -0.000208786 
-0.000635817 5.47276e-05 0.000608238 0.000582769 0.000334818 0.000209572 -5.59184e-06 -6.19878e-05 -9.05024e-05 0.000252089 
-0.000154273 -0.000590186 -0.000132863 0.00178524 -0.000196824 -0.00296356 -6.16364e-05 0.00194393 0.00314394 0.000969038 
-0.00177969 -0.00100614 -0.000140035 0.00146784 0.00373873 0.00638762 0.00728265 0.00635338 0.00391055 0.00145392 
0.00106331 0.00173185 0.000179493 -0.00182428 -0.000426073 0.00182364 0.000728519 -0.000967632 -0.000338992 0.000936896 
-0.000236755 -0.00062587 0.000114119 0.000203555 -0.000602886 0.000173383 0.00026451 -0.000136353 -4.28016e-05 0.000168854 
-0.000208819 0.000181774 -0.000197964 -0.000373024 -4.74363e-05 -0.000453194 4.47001e-05 6.07943e-05 -4.04587e-06 0.000426868 
-9.06054e-05 0.000329776 2.76971e-05 0.000118322 0.000382185 0.000223429 0.000792526 0.000546718 0.00103823 0.0007499 
0.000861725 0.000580901 0.000391373 0.000201402 -9.0562e-05 -8.01472e-05 -0.000350598 -0.000237558 -0.000501008 -0.000398803 
-0.00069657 -0.000638704 -0.000666617 -0.000260581 5.75323e-05 0.000482142 0.000286761 -0.000224521 -0.000825788 -0.0004701 
0.000273665 0.000467675 0.000443538 0.00142204 -0.0042849 0.00381 0.000918399 -0.00158169 -0.000271792 0.000502589 
0.000105088 -0.000158655 9.24271e-05 0.000564582 0.000691963 0.000626435 0.000263367 8.45463e-05 -0.000193046 5.39366e-05 
-0.000216206 0.000609348 0.000375334 -0.000535954 -0.0015366 0.000304929 0.00263642 0.000988125 -0.00100844 -0.0033598 
-0.00190898 0.00100128 0.00105882 -0.000194246 -0.0025639 -0.00478012 -0.00727232 -0.00760633 -0.00539522 -0.00265983 
-0.000905124 -0.00162088 -0.00179463 0.000478133 0.00252898 -0.000380959 -0.00262701 -0.000286335 0.00149625 -0.000468172 
-0.00113825 0.000689584 0.000384436 -0.000518815 0.00016122 0.000408929 -0.000465626 -6.10625e-05 0.000125283 -0.00028252 
-2.90576e-05 -0.000154712 -0.000281938 0.000219185 4.64541e-05 4.10594e-05 0.000333524 -0.000179951 0.000103341 -4.56145e-05 
-0.000107758 0.000354463 0.000127399 0.000727401 0.000593059 0.000872386 0.000955315 0.000882889 0.0011529 0.00087384 
0.00124645 0.000870068 0.00101168 0.000522511 0.00037825 -0.00016612 -0.000397445 -0.000706423 -0.00073752 -0.000632417 
-0.000407748 -0.000330331 -0.000358733 -0.000585273 -0.000646996 -0.000428921 0.000252639 0.000633054 0.000181652 -0.000709222 
-0.000701388 -0.000721608 -0.00124472 0.00475532 -0.00358073 -0.000745135 0.00193033 0.000427889 -0.00074334 -0.000537328 
-0.000207513 -0.00014937 -0.000203432 8.6728e-05 0.00047601 0.00090168 0.000756893 0.000529541 -0.000113458 -4.36903e-05 
0.000420876 0.000897324 -0.00128014 -0.00125157 0.00118133 0.00208313 -0.00017667 -0.00221301 -0.00134692 0.000571559 
0.00325372 0.00252694 0.000154671 -0.000881774 0.000320612 0.00331176 0.00544494 0.00762329 0.00702605 0.00407366 
0.00116818 0.000616281 0.00215814 0.00138581 -0.00162307 -0.0029987 0.00159618 0.00304391 -0.000509398 -0.00178379 
0.0016088 0.000923664 -0.00109641 0.000129967 0.000847779 -0.00061072 0.000144209 0.000502774 -0.000195816 0.000156679 
0.000425187 -4.21231e-05 0.000571083 0.000268757 -0.000121763 0.000360587 -0.000115491 5.85925e-05 0.00037179 5.69989e-05 
0.000551888 0.000204819 0.000297152 0.000414843 0.000295758 0.000890236 0.000833385 0.00158245 0.0018364 0.00227936 
0.00252945 0.0025463 0.00257538 0.00201307 0.00168011 0.000734389 0.000177275 -0.000749495 -0.00117536 -0.00154085 
-0.00118981 -0.000665426 0.000255442 0.000731321 0.000834283 0.000165763 -0.000213388 0.000115801 0.000782924 0.000472282 
0.000499827 0.000738575 -0.00532863 0.00352414 0.000907555 -0.00194675 -0.000378347 0.000961429 0.000753195 0.000185943 
-0.000110677 -0.000158708 -0.000200905 -0.000127315 -3.4078e-05 0.000452833 0.00066879 0.000981449 0.000484334 -0.000156666 
0.000831918 -0.000175189 -0.00213555 0.000915606 0.00260944 -0.00084336 -0.00270518 -8.52511e-05 0.00233901 0.00216554 
-0.000237492 -0.00305303 -0.00281503 -0.00143085 0.000104733 -0.00087843 -0.00404222 -0.00590489 -0.00735394 -0.0054492 
-0.00229374 0.000401747 -0.000663159 -0.0024696 -0.000456334 0.00325575 0.00297395 -0.00293509 -0.00291332 0.00167673 
0.00151953 -0.00267043 -0.000248532 0.00138886 -0.000964841 -0.000773623 0.000919218 -0.000781521 -0.00028212 0.000406207 
-0.000706772 -0.000155669 -2.31933e-05 -0.000799453 -1.68941e-05 -9.85699e-05 -0.000312915 0.000302953 -0.000154837 9.96164e-06 
0.000275507 0.000205383 0.00110726 0.00115309 0.00191438 0.00245303 0.00286091 0.00358031 0.0037164 0.00441479 
0.00434656 0.00460447 0.00430394 0.00396766 0.0033311 0.00240815 0.00150764 0.000495399 -0.000425306 -0.00130008 
-0.00192205 -0.00213533 -0.0016977 -0.000595382 0.000875747 0.00173144 0.00127731 0.000381644 0.000287341 -0.000312155 
-0.000598234 0.0054272 -0.00386899 -0.00130519 0.0019622 0.000505988 -0.000913043 -0.000754541 -4.91057e-05 0.000288035 
0.000320246 0.00012781 -9.97025e-05 -0.00012028 -0.000214227 0.0001416 0.000222518 0.000622942 0.0010807 -4.6697e-05 
0.0006031 -0.00122565 -0.000948249 0.00268208 0.000425154 -0.00333723 -0.000167125 0.00323763 0.00125201 -0.00198852 
-0.00321325 -0.000290771 0.00290276 0.00295925 0.00233724 0.000727447 0.00149053 0.00443192 0.00595135 0.00641179 
0.0031416 0.000250244 -0.00164239 0.00107794 0.00237288 -0.00110345 -0.00521355 -0.00230993 0.00413171 0.00211488 
-0.00307263 -0.000609631 0.00318156 -0.000846385 -0.00138507 0.00191865 9.68016e-05 -0.000945237 0.00127813 -0.000219148 
-0.00034704 0.00108492 -0.000464528 0.000148683 0.000819544 -0.000290898 0.000500067 4.24374e-05 -7.48138e-05 0.000717401 
0.000432758 0.000973661 0.00115405 0.00138897 0.00225287 0.00271045 0.00402052 0.0052232 0.0066889 0.00813338 
0.00913564 0.00987633 0.00966306 0.00882304 0.00718376 0.00496872 0.00249792 0.000256182 -0.00143722 -0.00229305 
-0.00261291 -0.00249146 -0.00244156 -0.00226118 -0.00155955 0.000130101 0.0014796 0.00142055 0.00174475 0.00114018 
-0.00543767 0.00405852 0.0015635 -0.00200163 -0.000604887 0.000943228 0.000843911 -1.20827e-05 -0.000378194 -0.000421602 
-6.25625e-05 0.000259591 0.000275126 0.000274006 -0.000162968 -0.000129843 -1.6821e-05 -0.000143505 0.00109283 0.000238041 
3.02993e-05 -0.00123064 0.000642629 0.00186669 -0.00222041 -0.00182644 0.0031537 0.00163655 -0.00267198 -0.00239453 
0.00104089 0.00410015 0.00127629 -0.0026488 -0.00336072 -0.00315994 -0.00170449 -0.00215416 -0.00440279 -0.00531667 
-0.00465736 -0.000371741 0.00177284 0.00213748 -0.00177628 -0.0016776 0.00339314 0.00705952 0.000966308 -0.00501282 
-0.000514219 0.00436201 -0.000742784 -0.00289994 0.00221816 0.000818 -0.00246286 0.00108686 0.000675533 -0.00148108 
0.00102282 -3.28691e-05 -0.000771939 0.0012014 -0.000362657 -0.000313591 0.000688477 -0.000114079 0.00103333 0.000637703 
0.00059586 0.00146632 0.0015467 0.00280921 0.0037007 0.00540724 0.00711541 0.00891791 0.0109903 0.0129031 
0.0147613 0.016049 0.0167714 0.0162782 0.0148796 0.0119537 0.00826566 0.00366954 -0.000599882 -0.00408283 
-0.00573769 -0.00558399 -0.00398475 -0.00230749 -0.00151027 -0.000879008 0.000312996 -0.000132527 0.000239222 0.00607515 
-0.00458918 -0.0025085 0.00152167 0.000655626 -0.000670705 -0.00050241 0.000403318 0.000616966 0.000499079 -2.7145e-05 
-0.000403603 -0.000347526 -0.000234114 0.000336414 0.000402891 7.86159e-05 0.000187624 -0.00081433 0.000360245 0.000512818 
-0.000295647 -0.000555496 0.00101667 -5.28746e-05 -0.0021574 0.00115919 0.00254357 -0.00209374 -0.00239016 0.00161204 
0.00308823 0.000303047 -0.00428822 -0.00255364 0.00186578 0.00370608 0.00376188 0.0026267 0.00270019 0.00394623 
0.00384862 0.00211829 -0.00248554 -0.00336448 -0.00166868 0.00249986 0.000173934 -0.00629395 -0.00809601 0.001043 
0.00539028 -0.00191515 -0.00508027 0.00224636 0.00184598 -0.00356139 0.000323777 0.00204941 -0.00243705 7.81477e-06 
0.00117462 -0.00183895 0.000549658 -8.22089e-05 -0.0014661 0.000854785 -0.000402209 -0.000312828 0.000313183 -0.000196868 
0.00137075 0.00154572 0.00289148 0.00453841 0.00604609 0.00871093 0.0111931 0.0150251 0.0184856 0.0225883 
0.0257586 0.0285549 0.0295454 0.029044 0.0265359 0.0223704 0.0169343 0.0106293 0.00422947 -0.00181489 
-0.00661226 -0.00928927 -0.00908887 -0.00599103 -0.00238082 0.000102596 0.00303486 0.00287285 -0.00377904 0.00586198 
0.00252568 -0.00289224 -0.00245134 -0.000655308 -3.35145e-05 -0.000354347 -0.000274961 -6.30479e-05 0.000287942 0.00052622 
0.000314047 0.000173516 -0.00035369 -0.000400312 0.000162625 5.32914e-05 0.000820856 -0.000457532 -0.000606013 0.000404532 
-0.00028879 -0.000151344 0.000235668 -0.00084828 -0.000239804 0.00173633 -0.000467058 -0.00240561 0.00127426 0.00265985 
-0.000542217 -0.00324728 -0.00147082 0.00373064 0.00362652 -0.000688727 -0.00391617 -0.00425647 -0.00341445 -0.00288015 
-0.00294266 -0.00143111 0.00104516 0.00503006 0.00411338 0.000366924 -0.00289977 0.00220108 0.00925347 0.00761593 
-0.00359636 -0.00492281 0.00482709 0.0047555 -0.00371187 -7.8501e-05 0.00443971 -0.00165706 -0.000665234 0.00334512 
-0.00121453 -0.00010696 0.00226083 -0.000946605 0.00125316 0.00120275 -0.000522817 0.00179515 0.000486669 0.0015052 
0.00220721 0.00215172 0.00421143 0.00502948 0.00836769 0.0114843 0.0164118 0.0219841 0.0282775 0.0354568 
0.041531 0.0475986 0.0505013 0.0517112 0.0481782 0.0421195 0.0321682 0.0215003 0.0102064 0.00123157 
-0.00600449 -0.0102622 -0.0126722 -0.0113959 -0.00720898 -0.00413889 0.00117774 0.00961978 -0.000669478 0.000228696 
0.00392312 0.00179516 -0.000955013 -0.00169004 -0.000895862 -0.000146529 4.63433e-06 -1.22818e-05 -0.000302628 -0.000156786 
-9.70899e-05 0.000352267 0.000433509 -0.000191509 3.80971e-05 -0.000514414 0.000562397 0.000458683 -0.000862011 1.46814e-05 
-0.000166609 -0.000317687 -0.000431362 -4.82318e-05 0.000884292 -0.000216898 -0.00166824 0.000474952 0.00246444 -0.00063772 
-0.00284149 -0.000323452 0.00329353 0.00226955 -0.00284703 -0.00441166 -0.000779363 0.00381263 0.00472934 0.00405502 
0.00249112 0.00124609 -0.00187018 -0.00452001 -0.00692338 -0.00378844 0.00132845 0.00268117 -0.00521814 -0.0114053 
-0.00530632 0.00634098 0.00326923 -0.00737675 -0.00303881 0.00491051 -0.00229504 -0.004339 0.00289096 -0.00106435 
-0.00308342 0.00247549 -0.00150135 -0.00164102 0.00154976 -0.0018141 0.000338394 0.000846001 -0.000341394 0.00249585 
0.00139735 0.00411373 0.00601583 0.00873207 0.0136707 0.0176812 0.025574 0.0323153 0.0427796 0.0523588 
0.063269 0.0727021 0.0798541 0.0836872 0.0818862 0.075165 0.0618861 0.0448901 0.0249207 0.00678682 
-0.00752028 -0.0153777 -0.0180847 -0.0174021 -0.0103722 -0.00659166 -0.00639263 0.0083073 0.00881536 0.00223433 
0.000874341 0.000897361 0.000119239 -0.00066946 -0.0010433 -0.000255767 0.000155002 0.000534547 0.000250964 -3.45972e-05 
-0.000504914 -0.00047508 0.000316609 0.000108368 0.000514152 -0.000371331 -0.000274844 0.000858008 -0.000550343 -0.00030932 
-0.000190102 -0.000676903 -0.000240836 0.00105946 9.60285e-05 -0.00187029 0.000221872 0.00241552 -0.000136163 -0.00279789 
-0.000242002 0.00312816 0.00136977 -0.00331914 -0.00292217 0.00182953 0.00480683 0.00220127 -0.00333586 -0.00512205 
-0.00444401 -0.00141011 0.00123328 0.00573601 0.00789359 0.00794705 0.00243425 -0.002888 -0.00162477 0.00845978 
0.0120364 0.00142148 -0.00873831 -0.000577222 0.00850424 -0.000102184 -0.0052882 0.00474084 0.00273707 -0.00398238 
0.00267047 0.00157441 -0.00296937 0.00284079 -0.000193737 -0.00134436 0.00240797 -0.00109414 0.0011986 0.00166966 
0.00152217 0.0055525 0.0058853 0.0116836 0.0160671 0.0243404 0.0351885 0.0469961 0.0635395 0.078649 
0.0971487 0.111252 0.12436 0.129809 0.1299 0.120496 0.104714 0.0813758 0.0546058 0.025477 
0.000117465 -0.0190412 -0.0266401 -0.0303371 -0.0207774 -0.00635488 -0.00779029 -0.000515218 0.00913011 0.00882915 