# vtk DataFile Version 2.0
Titre
ASCII
DATASET STRUCTURED_POINTS
DIMENSIONS 100 100 1
ORIGIN 0.0 0.0 0.0
SPACING 0.1 0.1 0.0
POINT_DATA 10000 
SCALARS rho float
LOOKUP_TABLE default
-6.60573e-22 -2.2054e-21 -7.41109e-21 -2.37861e-20 -7.30334e-20 -2.14095e-19 -5.98035e-19 -1.5883e-18 -4.00104e-18 -9.53371e-18 
-2.14221e-17 -4.52326e-17 -8.93862e-17 -1.64539e-16 -2.80554e-16 -4.40132e-16 -6.30017e-16 -8.14185e-16 -9.367e-16 -9.40675e-16 
-8.00214e-16 -5.47177e-16 -2.67423e-16 -5.697e-17 3.61216e-17 3.60783e-17 6.36511e-18 -7.75513e-18 -3.682e-18 1.58173e-18 
1.10675e-18 -4.57397e-19 -2.44121e-19 1.64636e-19 1.8049e-20 -4.59925e-20 1.41102e-20 3.80093e-21 -4.9311e-21 1.97621e-21 
-2.41469e-22 -1.97908e-22 1.66262e-22 -7.85875e-23 2.85275e-23 -8.6814e-24 2.30612e-24 -5.473e-25 1.1781e-25 -2.32478e-26 
4.23913e-27 -7.18698e-28 1.1385e-28 -1.69197e-29 2.36694e-30 -3.12572e-31 3.90593e-32 -4.62791e-33 5.20769e-34 -5.57254e-35 
5.67486e-36 -5.50087e-37 5.07183e-38 -4.43803e-39 3.66758e-40 -2.83337e-41 2.00144e-42 -1.22303e-43 5.31239e-45 5.8174e-47 
-5.43188e-47 9.30833e-48 -1.21805e-48 3.08568e-49 1.86599e-48 2.14073e-47 2.40242e-46 2.65929e-45 2.88146e-44 3.09795e-43 
3.22347e-42 3.35737e-41 3.32749e-40 3.34243e-39 3.10942e-38 2.98388e-37 2.52373e-36 2.25651e-35 1.57745e-34 1.18757e-33 
3.31115e-33 -1.47997e-32 -1.11425e-30 -1.6433e-29 -2.63884e-28 -3.17985e-27 -4.1255e-26 -4.64396e-25 -5.47228e-24 -5.93398e-23 
2.22524e-21 7.71902e-21 2.68068e-20 8.89662e-20 2.82492e-19 8.56572e-19 2.47554e-18 6.80471e-18 1.77484e-17 4.38101e-17 
1.02038e-16 2.23487e-16 4.58511e-16 8.7716e-16 1.55636e-15 2.54474e-15 3.804e-15 5.14714e-15 6.22212e-15 6.59972e-15 
5.97978e-15 4.42518e-15 2.43847e-15 7.38751e-16 -1.70699e-16 -3.07427e-16 -9.68455e-17 5.17963e-17 4.09523e-17 -8.19048e-18 
-1.21747e-17 2.60009e-18 3.08736e-18 -1.29659e-18 -4.63273e-19 4.88254e-19 -8.68547e-20 -7.32567e-20 5.79696e-20 -1.78903e-20 
-5.1186e-22 3.65671e-21 -2.35467e-21 1.01958e-21 -3.53451e-22 1.04513e-22 -2.72281e-23 6.37429e-24 -1.35887e-24 2.66329e-25 
-4.83396e-26 8.17156e-27 -1.2925e-27 1.92018e-28 -2.68812e-29 3.55599e-30 -4.45591e-31 5.30038e-32 -5.99648e-33 6.46305e-34 
-6.64625e-35 6.52956e-36 -6.13554e-37 5.51945e-38 -4.75706e-39 3.92999e-40 -3.11252e-41 2.36214e-42 -1.71528e-43 1.18771e-44 
-7.7832e-46 4.74494e-47 -2.64913e-48 -6.1949e-49 -7.59968e-48 -7.81298e-47 -7.91577e-46 -7.88838e-45 -7.71468e-44 -7.38206e-43 
-6.87985e-42 -6.20477e-41 -5.3533e-40 -4.33425e-39 -3.15063e-38 -1.82408e-37 -3.61001e-37 1.2056e-35 2.87075e-34 4.59312e-33 
6.37367e-32 8.16597e-31 9.97887e-30 1.17628e-28 1.35323e-27 1.52349e-26 1.68849e-25 1.84261e-24 1.98652e-23 2.11427e-22 
-7.58256e-21 -2.71639e-20 -9.71282e-20 -3.32104e-19 -1.08678e-18 -3.39747e-18 -1.01275e-17 -2.87272e-17 -7.73624e-17 -1.97288e-16 
-4.75065e-16 -1.07661e-15 -2.28757e-15 -4.53731e-15 -8.35765e-15 -1.42084e-14 -2.21255e-14 -3.12622e-14 -3.95896e-14 -4.41895e-14 
-4.24292e-14 -3.36922e-14 -2.05051e-14 -7.72976e-15 2.52003e-16 2.37079e-15 1.09652e-15 -2.68897e-16 -3.92747e-16 1.26808e-17 
1.16478e-16 -6.2741e-18 -3.29861e-17 8.21361e-18 6.83103e-18 -4.5887e-18 1.82876e-19 1.03847e-18 -6.08982e-19 1.32466e-19 
4.29171e-20 -5.49011e-20 3.04299e-20 -1.23693e-20 4.13622e-21 -1.19492e-21 3.06397e-22 -7.09386e-23 1.50064e-23 -2.9257e-24 
5.2921e-25 -8.92798e-26 1.4108e-26 -2.09568e-27 2.93536e-28 -3.88716e-29 4.87823e-30 -5.81383e-31 6.59254e-32 -7.1248e-33 
7.35001e-34 -7.24762e-35 6.83958e-36 -6.18387e-37 5.36167e-38 -4.46169e-39 3.56574e-40 -2.73831e-41 2.02147e-42 -1.43484e-43 
9.79247e-45 -6.42376e-46 4.0516e-47 -1.78623e-48 6.35864e-48 5.86572e-47 5.2767e-46 4.44133e-45 3.34009e-44 1.95771e-43 
2.83222e-43 -1.68991e-41 -3.96404e-40 -6.5376e-39 -9.40589e-38 -1.25612e-36 -1.59939e-35 -1.96918e-34 -2.36408e-33 -2.78232e-32 
-3.22176e-31 -3.67954e-30 -4.15211e-29 -4.63462e-28 -5.12113e-27 -5.60389e-26 -6.07376e-25 -6.51961e-24 -6.92906e-23 -7.28818e-22 
2.46133e-20 9.11229e-20 3.35691e-19 1.18321e-18 3.99236e-18 1.2873e-17 3.95936e-17 1.1593e-16 3.22421e-16 8.49637e-16 
2.11547e-15 4.96093e-15 1.09173e-14 2.24505e-14 4.2927e-14 7.58664e-14 1.23039e-13 1.81467e-13 2.40592e-13 2.82315e-13 
2.86748e-13 2.43459e-13 1.6208e-13 7.21947e-14 7.51559e-15 -1.63134e-14 -1.06163e-14 5.94729e-16 3.33911e-15 4.10621e-16 
-9.86368e-16 -1.04804e-16 3.0963e-16 -3.05682e-17 -8.08849e-17 3.77436e-17 5.3924e-18 -1.24573e-17 5.70322e-18 -6.15517e-19 
-8.50983e-19 7.24936e-19 -3.63381e-19 1.40641e-19 -4.56625e-20 1.29388e-20 -3.27458e-21 7.5148e-22 -1.58052e-22 3.07056e-23 
-5.54372e-24 9.34631e-25 -1.47724e-25 2.19624e-26 -3.08017e-27 4.08546e-28 -5.13644e-29 6.13389e-30 -6.97074e-31 7.5516e-32 
-7.81093e-33 7.72492e-34 -7.31442e-35 6.63846e-36 -5.78101e-37 4.83481e-38 -3.88618e-39 3.00406e-40 -2.23434e-41 1.59958e-42 
-1.10252e-43 7.31744e-45 -4.67961e-46 2.92947e-47 1.89586e-48 5.74968e-47 8.11054e-46 1.10056e-44 1.44676e-43 1.8554e-42 
2.33205e-41 2.88216e-40 3.51093e-39 4.2232e-38 5.02324e-37 5.91449e-36 6.89927e-35 7.97829e-34 9.15019e-33 1.04109e-31 
1.1753e-30 1.3165e-29 1.46308e-28 1.61291e-27 1.76329e-26 1.91095e-25 2.05208e-24 2.18241e-23 2.29727e-22 2.39184e-21 
-7.62975e-20 -2.91923e-19 -1.10823e-18 -4.02728e-18 -1.40133e-17 -4.66096e-17 -1.47929e-16 -4.47126e-16 -1.2843e-15 -3.49715e-15 
-9.00323e-15 -2.18465e-14 -4.97888e-14 -1.06138e-13 -2.10631e-13 -3.86902e-13 -6.53287e-13 -1.00532e-12 -1.3946e-12 -1.71877e-12 
-1.84388e-12 -1.66887e-12 -1.20651e-12 -6.15866e-13 -1.29655e-13 9.70006e-14 9.1055e-14 8.69635e-15 -2.52102e-14 -7.35155e-15 
7.36577e-15 2.18272e-15 -2.57525e-15 -1.53522e-16 8.26297e-16 -2.61739e-16 -1.16735e-16 1.31763e-16 -4.68269e-17 -2.35691e-18 
1.25475e-17 -8.67576e-18 4.0404e-18 -1.50333e-18 4.76316e-19 -1.32837e-19 3.32729e-20 -7.58701e-21 1.59007e-21 -3.08468e-22 
5.56956e-23 -9.40018e-24 1.48837e-24 -2.21754e-25 3.11728e-26 -4.14444e-27 5.22262e-28 -6.25064e-29 7.11854e-30 -7.72774e-31 
8.00982e-32 -7.93899e-33 7.5351e-34 -6.85728e-35 5.99035e-36 -5.02841e-37 4.05944e-38 -3.15411e-39 2.36002e-40 -1.70129e-41 
1.18194e-42 -7.9143e-44 5.10253e-45 -3.15493e-46 -1.28269e-47 -3.56585e-46 -4.38188e-45 -5.34013e-44 -6.46819e-43 -7.78561e-42 
-9.31343e-41 -1.10726e-39 -1.30835e-38 -1.53649e-37 -1.79328e-36 -2.07994e-35 -2.39712e-34 -2.74474e-33 -3.12179e-32 -3.52612e-31 
-3.95425e-30 -4.40118e-29 -4.8602e-28 -5.32286e-27 -5.77891e-26 -6.2164e-25 -6.62191e-24 -6.98093e-23 -7.27838e-22 -7.4993e-21 
2.25375e-19 8.91305e-19 3.4879e-18 1.30707e-17 4.69105e-17 1.60976e-16 5.27262e-16 1.64531e-15 4.88104e-15 1.37344e-14 
3.65593e-14 9.17881e-14 2.16619e-13 4.78647e-13 9.85684e-13 1.88141e-12 3.30653e-12 5.30705e-12 7.69876e-12 9.95744e-12 
1.12676e-11 1.08446e-11 8.46601e-12 4.85511e-12 1.45787e-12 -4.56343e-13 -7.00843e-13 -1.65528e-13 1.66844e-13 8.47086e-14 
-4.74467e-14 -2.69672e-14 1.88577e-14 4.85017e-15 -7.46819e-15 1.35774e-15 1.59782e-15 -1.24773e-15 3.21326e-16 1.08995e-16 
-1.57709e-16 9.55035e-17 -4.20142e-17 1.51345e-17 -4.69959e-18 1.29425e-18 -3.2181e-19 7.31215e-20 -1.53133e-20 2.97444e-21 
-5.38441e-22 9.1186e-23 -1.44928e-23 2.16767e-24 -3.05854e-25 4.08025e-26 -5.15728e-27 6.1884e-28 -7.06286e-29 7.68091e-30 
-7.97303e-31 7.91267e-32 -7.51932e-33 6.85191e-34 -5.99502e-35 5.04227e-36 -4.081e-37 3.18123e-38 -2.39014e-39 1.73181e-40 
-1.2106e-41 8.16783e-43 -5.32771e-44 3.42108e-45 -1.44851e-46 1.25459e-45 1.48367e-44 1.797e-43 2.16336e-42 2.59066e-41 
3.08553e-40 3.65455e-39 4.30391e-38 5.03905e-37 5.86422e-36 6.78206e-35 7.79298e-34 8.89459e-33 1.00811e-31 1.13426e-30 
1.26646e-29 1.40275e-28 1.54064e-27 1.67709e-26 1.80853e-25 1.93096e-24 2.04001e-23 2.13116e-22 2.19989e-21 2.24197e-20 
-6.33113e-19 -2.58852e-18 -1.04448e-17 -4.03739e-17 -1.49489e-16 -5.29338e-16 -1.78957e-15 -5.76582e-15 -1.76679e-14 -5.13739e-14 
-1.41394e-13 -3.67287e-13 -8.97505e-13 -2.05532e-12 -4.39138e-12 -8.708e-12 -1.59247e-11 -2.66485e-11 -4.04059e-11 -5.48042e-11 
-6.5337e-11 -6.67327e-11 -5.60043e-11 -3.55924e-11 -1.3533e-11 1.12128e-12 4.84726e-12 1.86374e-12 -9.31577e-13 -7.92109e-13 
2.47607e-13 2.66423e-13 -1.1848e-13 -6.58473e-14 6.01308e-14 -2.27843e-15 -1.77956e-14 1.06042e-14 -1.57022e-15 -1.80657e-15 
1.76863e-15 -9.74712e-16 4.09601e-16 -1.43651e-16 4.38933e-17 -1.198e-17 2.96756e-18 -6.74346e-19 1.41628e-19 -2.76399e-20 
5.03275e-21 -8.57735e-22 1.37199e-22 -2.06459e-23 2.92924e-24 -3.92663e-25 4.9831e-26 -5.99848e-27 6.86233e-28 -7.47477e-29 
7.76615e-30 -7.71006e-31 7.32631e-32 -6.67398e-33 5.83729e-34 -4.9087e-35 3.97368e-36 -3.10004e-37 2.33287e-38 -1.69467e-39 
1.18901e-40 -8.05842e-42 5.26401e-43 -3.24131e-44 1.163e-45 -3.60262e-45 -4.6041e-44 -5.56662e-43 -6.71224e-42 -8.04712e-41 
-9.5918e-40 -1.13653e-38 -1.33848e-37 -1.56642e-36 -1.82132e-35 -2.10351e-34 -2.41253e-33 -2.74693e-32 -3.10413e-31 -3.48017e-30 
-3.86963e-29 -4.2655e-28 -4.65916e-27 -5.04044e-26 -5.39783e-25 -5.71875e-24 -5.99001e-23 -6.19844e-22 -6.33159e-21 -6.37862e-20 
1.68757e-18 7.13497e-18 2.96967e-17 1.18442e-16 4.52547e-16 1.65393e-15 5.77245e-15 1.92052e-14 6.07911e-14 1.82673e-13 
5.19832e-13 1.39701e-12 3.53439e-12 8.38727e-12 1.85895e-11 3.82876e-11 7.28374e-11 1.27034e-10 2.0123e-10 2.86031e-10 
3.58905e-10 3.88319e-10 3.49085e-10 2.43431e-10 1.10578e-10 7.8941e-12 -2.98646e-11 -1.68028e-11 3.90815e-12 6.38151e-12 
-8.26693e-13 -2.25971e-12 5.93634e-13 6.8495e-13 -4.28991e-13 -6.07377e-14 1.72197e-13 -8.02289e-14 4.37496e-16 2.27878e-14 
-1.80593e-14 9.26309e-15 -3.74868e-15 1.28631e-15 -3.88398e-16 1.05514e-16 -2.61567e-17 5.9721e-18 -1.26368e-18 2.48872e-19 
-4.57634e-20 7.87701e-21 -1.27192e-21 1.93064e-22 -2.76021e-23 3.7242e-24 -4.75134e-25 5.74287e-26 -6.5888e-27 7.18911e-28 
-7.47402e-29 7.41736e-30 -7.03966e-31 6.40078e-32 -5.58516e-33 4.68452e-34 -3.78251e-35 2.94427e-36 -2.21201e-37 1.60564e-38 
-1.12703e-39 7.65714e-41 -5.056e-42 3.34866e-43 -2.63925e-44 1.57028e-44 1.32911e-43 1.63595e-42 1.97662e-41 2.37451e-40 
2.83458e-39 3.36206e-38 3.96138e-37 4.63582e-36 5.38703e-35 6.21455e-34 7.11524e-33 8.08278e-32 9.1071e-31 1.0174e-29 
1.12648e-28 1.23563e-27 1.34206e-26 1.44261e-25 1.53378e-24 1.61188e-23 1.67321e-22 1.71421e-21 1.73176e-20 1.72339e-19 
-4.25755e-18 -1.86207e-17 -7.99767e-17 -3.29236e-16 -1.29853e-15 -4.89947e-15 -1.76568e-14 -6.06719e-14 -1.98406e-13 -6.16159e-13 
-1.81293e-12 -5.04037e-12 -1.32013e-11 -3.24584e-11 -7.46127e-11 -1.59579e-10 -3.15709e-10 -5.73668e-10 -9.48931e-10 -1.41267e-09 
-1.86394e-09 -2.13312e-09 -2.04805e-09 -1.5555e-09 -8.16264e-10 -1.54892e-10 1.60062e-10 1.30299e-10 -5.83482e-12 -4.51679e-11 
-1.55204e-12 1.68626e-11 -1.75221e-12 -6.04749e-12 2.65591e-12 1.08155e-12 -1.48374e-12 5.27495e-13 1.13629e-13 -2.45832e-13 
1.69614e-13 -8.21494e-14 3.22238e-14 -1.08717e-14 3.26016e-15 -8.86394e-16 2.21196e-16 -5.10448e-17 1.09433e-17 -2.18601e-18 
4.07752e-19 -7.11488e-20 1.1634e-20 -1.78587e-21 2.57833e-22 -3.50764e-23 4.50526e-24 -5.4739e-25 6.30366e-26 -6.89366e-27 
7.17305e-28 -7.11522e-29 6.74109e-30 -6.11153e-31 5.31201e-32 -4.43458e-33 3.56206e-34 -2.75765e-35 2.06084e-36 -1.48874e-37 
1.04076e-38 -7.04317e-40 4.591e-41 -2.74831e-42 8.36875e-44 7.47373e-46 -3.90259e-43 -4.55575e-42 -5.52975e-41 -6.6577e-40 
-7.96163e-39 -9.45468e-38 -1.11475e-36 -1.30468e-35 -1.51538e-34 -1.74631e-33 -1.99608e-32 -2.26231e-31 -2.54151e-30 -2.82898e-29 
-3.11877e-28 -3.40365e-27 -3.67529e-26 -3.92441e-25 -4.14109e-24 -4.31526e-23 -4.43719e-22 -4.49816e-21 -4.49114e-20 -4.41147e-19 
1.01381e-17 4.58863e-17 2.03476e-16 8.64949e-16 3.52277e-15 1.37266e-14 5.10927e-14 1.81361e-13 6.12797e-13 1.96696e-12 
5.98403e-12 1.72108e-11 4.66611e-11 1.1885e-10 2.83292e-10 6.29004e-10 1.29373e-09 2.44831e-09 4.2271e-09 6.58683e-09 
9.13131e-09 1.10388e-08 1.1292e-08 9.28748e-09 5.51075e-09 1.59175e-09 -7.02606e-10 -8.90841e-10 -1.01492e-10 2.81358e-10 
5.82329e-11 -1.11441e-10 -6.53572e-12 4.69236e-11 -1.35001e-11 -1.2226e-11 1.14875e-11 -2.82953e-12 -1.85017e-12 2.36147e-12 
-1.47283e-12 6.80404e-13 -2.60196e-13 8.67917e-14 -2.60132e-14 7.12907e-15 -1.80413e-15 4.23764e-16 -9.26205e-17 1.88637e-17 
-3.58407e-18 6.36054e-19 -1.05591e-19 1.64255e-20 -2.39873e-21 3.29515e-22 -4.2665e-23 5.21726e-24 -6.03746e-25 6.62459e-26 
-6.90554e-27 6.85176e-28 -6.48335e-29 5.86162e-30 -5.07326e-31 4.2116e-32 -3.35996e-33 2.58099e-34 -1.91258e-35 1.36969e-36 
-9.49642e-38 6.3901e-39 -4.21326e-40 2.89389e-41 -2.78182e-42 6.59084e-43 7.96469e-43 1.21309e-41 1.46677e-40 1.77072e-39 
2.12166e-38 2.52306e-37 2.97726e-36 3.48534e-35 4.04673e-34 4.65881e-33 5.31648e-32 6.01178e-31 6.73362e-30 7.46761e-29 
8.19599e-28 8.89791e-27 9.54984e-26 1.01264e-24 1.06013e-23 1.0949e-22 1.11461e-21 1.1173e-20 1.10165e-19 1.06704e-18 
-2.27125e-17 -1.06442e-16 -4.87597e-16 -2.14138e-15 -9.01016e-15 -3.62715e-14 -1.39489e-13 -5.11618e-13 -1.78653e-12 -5.92763e-12 
-1.8647e-11 -5.54795e-11 -1.55683e-10 -4.1072e-10 -1.01492e-09 -2.33873e-09 -4.99921e-09 -9.84901e-09 -1.77406e-08 -2.89186e-08 
-4.20883e-08 -5.36844e-08 -5.83896e-08 -5.17726e-08 -3.423e-08 -1.28996e-08 2.04235e-09 5.40624e-09 1.45332e-09 -1.52245e-09 
-6.41865e-10 6.49072e-10 1.63285e-10 -3.24213e-10 4.65319e-11 1.12141e-10 -7.99211e-11 9.80963e-12 2.09911e-11 -2.0561e-11 
1.18511e-11 -5.26239e-12 1.97357e-12 -6.55393e-13 1.97976e-13 -5.51862e-14 1.4286e-14 -3.44085e-15 7.71149e-16 -1.608e-16 
3.1209e-17 -5.64381e-18 9.52451e-19 -1.50287e-19 2.22191e-20 -3.08461e-21 4.02988e-22 -4.96506e-23 5.78084e-24 -6.37316e-25 
6.66574e-26 -6.62647e-27 6.27265e-28 -5.6643e-29 4.88835e-30 -4.03934e-31 3.20199e-32 -2.43976e-33 1.7905e-34 -1.26819e-35 
8.68535e-37 -5.75391e-38 3.64847e-39 -2.00991e-40 6.05028e-43 4.25386e-42 -4.30979e-42 -2.95668e-41 -3.68535e-40 -4.45819e-39 
-5.35345e-38 -6.37636e-37 -7.53162e-36 -8.82017e-35 -1.02381e-33 -1.17759e-32 -1.34168e-31 -1.51366e-30 -1.69028e-29 -1.86743e-28 
-2.04016e-27 -2.20285e-26 -2.34928e-25 -2.47295e-24 -2.56742e-23 -2.62664e-22 -2.6455e-21 -2.62022e-20 -2.54884e-19 -2.43162e-18 
4.76969e-17 2.31607e-16 1.09678e-15 4.97941e-15 2.16574e-14 9.01172e-14 3.58213e-13 1.35806e-12 4.90218e-12 1.68162e-11 
5.47047e-11 1.68368e-10 4.88971e-10 1.3359e-09 3.42131e-09 8.17957e-09 1.81639e-08 3.72371e-08 6.99397e-08 1.19192e-07 
1.81985e-07 2.4466e-07 2.82439e-07 2.69004e-07 1.96114e-07 8.98918e-08 2.02714e-09 -2.89881e-08 -1.28052e-08 6.89403e-09 
5.17794e-09 -3.27241e-09 -1.70168e-09 2.00029e-09 2.74253e-11 -8.90073e-10 4.95656e-10 1.81302e-11 -1.97931e-10 1.63624e-10 
-8.83961e-11 3.7978e-11 -1.40663e-11 4.69349e-12 -1.44443e-12 4.13924e-13 -1.10585e-13 2.74846e-14 -6.34055e-15 1.35629e-15 
-2.69095e-16 4.95895e-17 -8.50535e-18 1.36096e-18 -2.03677e-19 2.85796e-20 -3.76908e-21 4.68235e-22 -5.49127e-23 6.09163e-24 
-6.40424e-25 6.39227e-26 -6.06799e-27 5.48738e-28 -4.73521e-29 3.90566e-30 -3.08448e-31 2.33661e-32 -1.70114e-33 1.19272e-34 
-8.07317e-36 5.29935e-37 -3.43761e-38 2.44575e-39 -2.75965e-40 6.35322e-41 -1.35459e-41 7.7314e-41 8.71639e-40 1.06032e-38 
1.27622e-37 1.52278e-36 1.80074e-35 2.10987e-34 2.44866e-33 2.81402e-32 3.2011e-31 3.60307e-30 4.01102e-29 4.41404e-28 
4.79931e-27 5.15253e-26 5.45842e-25 5.70151e-24 5.86702e-23 5.94201e-22 5.91645e-21 5.78441e-20 5.54501e-19 5.20311e-18 
-9.34911e-17 -4.70774e-16 -2.30658e-15 -1.08339e-14 -4.87424e-14 -2.09771e-13 -8.62328e-13 -3.38077e-12 -1.26196e-11 -4.47674e-11 
-1.50623e-10 -4.79574e-10 -1.44132e-09 -4.07715e-09 -1.08191e-08 -2.68258e-08 -6.18576e-08 -1.31889e-07 -2.58153e-07 -4.59658e-07 
-7.35689e-07 -1.04143e-06 -1.27409e-06 -1.29963e-06 -1.03666e-06 -5.55877e-07 -8.779e-08 1.34941e-07 8.99084e-08 -2.34268e-08 
-3.44651e-08 1.36717e-08 1.34008e-08 -1.09669e-08 -2.28092e-09 6.26438e-09 -2.68579e-09 -7.364e-10 1.63452e-09 -1.19424e-09 
6.10579e-10 -2.55495e-10 9.43182e-11 -3.20141e-11 1.01705e-11 -3.02918e-12 8.41168e-13 -2.16469e-13 5.14413e-14 -1.12785e-14 
2.28404e-15 -4.28208e-16 7.45304e-17 -1.20795e-17 1.82848e-18 -2.59228e-19 3.45116e-20 -4.32505e-21 5.11355e-22 -5.71533e-23 
6.05004e-24 -6.07612e-25 5.79893e-26 -5.26731e-27 4.5603e-28 -3.7687e-29 2.97731e-30 -2.2519e-31 1.63329e-32 -1.1379e-33 
7.62651e-35 -4.91252e-36 2.98111e-37 -1.43754e-38 -5.26592e-40 4.98691e-40 -1.89226e-40 -1.0549e-40 -1.96585e-39 -2.37583e-38 
-2.86768e-37 -3.42845e-36 -4.0596e-35 -4.75953e-34 -5.52337e-33 -6.3424e-32 -7.20351e-31 -8.08891e-30 -8.97599e-29 -9.8376e-28 
-1.06427e-26 -1.13574e-25 -1.19467e-24 -1.23763e-23 -1.26152e-22 -1.26383e-21 -1.24288e-20 -1.19811e-19 -1.13024e-18 -1.04136e-17 
1.70175e-16 8.89568e-16 4.51416e-15 2.19567e-14 1.02273e-13 4.5559e-13 1.93819e-12 7.86255e-12 3.03642e-11 1.11434e-10 
3.87866e-10 1.27769e-09 3.97375e-09 1.16367e-08 3.19849e-08 8.22145e-08 1.96753e-07 4.3603e-07 8.88816e-07 1.65227e-06 
2.76987e-06 4.12456e-06 5.3402e-06 5.8197e-06 5.04909e-06 3.09158e-06 8.34312e-07 -5.2236e-07 -5.35679e-07 3.17898e-08 
1.95787e-07 -4.17045e-08 -8.83157e-08 5.27111e-08 2.53528e-08 -3.94699e-08 1.21318e-08 8.5802e-09 -1.20723e-08 7.99761e-09 
-3.89743e-09 1.60095e-09 -5.96619e-10 2.09307e-10 -6.9616e-11 2.1739e-11 -6.29425e-12 1.67603e-12 -4.09214e-13 9.16684e-14 
-1.88897e-14 3.59324e-15 -6.33316e-16 1.03803e-16 -1.58758e-17 2.27274e-18 -3.05404e-19 3.86197e-20 -4.60621e-21 5.19238e-22 
-5.54219e-23 5.6107e-24 -5.39562e-25 4.93595e-26 -4.30113e-27 3.57459e-28 -2.83686e-29 2.15256e-30 -1.56363e-31 1.08892e-32 
-7.28497e-34 4.70828e-35 -3.02089e-36 2.2058e-37 -2.67164e-38 5.99416e-39 -1.64049e-39 7.92699e-40 3.97497e-39 5.00857e-38 
6.05807e-37 7.25861e-36 8.60759e-35 1.00993e-33 1.17202e-32 1.34478e-31 1.52495e-30 1.70821e-29 1.88923e-28 2.06171e-27 
2.21862e-26 2.35251e-25 2.4559e-24 2.52177e-23 2.54421e-22 2.51892e-21 2.44383e-20 2.31954e-19 2.14961e-18 1.94059e-17 
-2.85884e-16 -1.55347e-15 -8.17533e-15 -4.12275e-14 -1.99035e-13 -9.18667e-13 -4.04823e-12 -1.70059e-11 -6.79915e-11 -2.58272e-10 
-9.30348e-10 -3.17147e-09 -1.02078e-08 -3.09412e-08 -8.80657e-08 -2.34558e-07 -5.8222e-07 -1.34013e-06 -2.84258e-06 -5.51206e-06 
-9.66953e-06 -1.51308e-05 -2.07054e-05 -2.4057e-05 -2.25969e-05 -1.55468e-05 -5.73479e-06 1.48296e-06 2.76158e-06 3.22563e-07 
-9.53801e-07 3.88891e-08 5.0361e-07 -2.15682e-07 -2.00509e-07 2.23024e-07 -3.96509e-08 -7.37479e-08 8.04507e-08 -4.90509e-08 
2.29235e-08 -9.34368e-09 3.57815e-09 -1.32185e-09 4.65853e-10 -1.53071e-10 4.6117e-11 -1.26495e-11 3.15763e-12 -7.1951e-13 
1.5032e-13 -2.89303e-14 5.15253e-15 -8.5277e-16 1.31648e-16 -1.90203e-17 2.57938e-18 -3.29186e-19 3.96278e-20 -4.509e-21 
4.85822e-22 -4.9648e-23 4.81942e-24 -4.44977e-25 3.91257e-26 -3.2799e-27 2.62418e-28 -2.00587e-29 1.4663e-30 -1.026e-31 
6.87451e-33 -4.39475e-34 2.60268e-35 -1.13822e-36 -6.9536e-38 4.47371e-38 -1.39593e-38 3.09345e-39 -8.98756e-39 -9.86206e-38 
-1.19996e-36 -1.44111e-35 -1.71174e-34 -2.01015e-33 -2.33297e-32 -2.67484e-31 -3.02827e-30 -3.38357e-29 -3.72896e-28 -4.05087e-27 
-4.33451e-26 -4.56459e-25 -4.72635e-24 -4.80671e-23 -4.79549e-22 -4.68668e-21 -4.47945e-20 -4.17891e-19 -3.79638e-18 -3.34902e-17 
4.39876e-16 2.48906e-15 1.36067e-14 7.12507e-14 3.57021e-13 1.70963e-12 7.81279e-12 3.40221e-11 1.40952e-10 5.54614e-10 
2.06879e-09 7.30093e-09 2.43234e-08 7.63128e-08 2.24857e-07 6.20265e-07 1.5958e-06 3.81173e-06 8.40472e-06 1.69819e-05 
3.11391e-05 5.11441e-05 7.38746e-05 9.13407e-05 9.25501e-05 7.07449e-05 3.25958e-05 -1.29611e-06 -1.23314e-05 -3.66473e-06 
3.92305e-06 6.04229e-07 -2.51376e-06 7.00138e-07 1.30815e-06 -1.12561e-06 2.67836e-08 5.29608e-07 -4.84951e-07 2.74471e-07 
-1.23811e-07 5.08839e-08 -2.04998e-08 8.12133e-09 -3.05077e-09 1.05158e-09 -3.27517e-10 9.19165e-11 -2.33242e-11 5.38186e-12 
-1.13609e-12 2.20672e-13 -3.96446e-14 6.61764e-15 -1.03046e-15 1.50199e-16 -2.05553e-17 2.64818e-18 -3.21913e-19 3.69984e-20 
-4.02774e-21 4.15979e-22 -4.0816e-23 3.80975e-24 -3.38664e-25 2.87013e-26 -2.32119e-27 1.793e-28 -1.32398e-29 9.35457e-31 
-6.33503e-32 4.13842e-33 -2.69225e-34 2.00843e-35 -2.391e-36 4.85457e-37 -1.19501e-37 3.05673e-38 7.94605e-39 1.83888e-37 
2.22117e-36 2.67493e-35 3.18297e-34 3.74153e-33 4.34294e-32 4.97554e-31 5.62334e-30 6.26613e-29 6.87977e-28 7.43709e-27 
7.90914e-26 8.26698e-25 8.48385e-24 8.53758e-23 8.41312e-22 8.10477e-21 7.61792e-20 6.96999e-19 6.19007e-18 5.31747e-17 
-6.13845e-16 -3.62547e-15 -2.06314e-14 -1.12403e-13 -5.85659e-13 -2.91454e-12 -1.38341e-11 -6.2538e-11 -2.68815e-10 -1.09683e-09 
-4.24041e-09 -1.55026e-08 -5.34819e-08 -1.73704e-07 -5.29776e-07 -1.51283e-06 -4.03112e-06 -9.9818e-06 -2.28512e-05 -4.80443e-05 
-9.19554e-05 -0.000158304 -0.000241014 -0.000316571 -0.000344982 -0.000290608 -0.000159576 -1.8944e-05 4.70715e-05 2.41628e-05 
-1.29841e-05 -5.66242e-06 1.09987e-05 -1.39249e-06 -7.36589e-06 5.0221e-06 9.0115e-07 -3.3055e-06 2.64006e-06 -1.39316e-06 
6.11948e-07 -2.59795e-07 1.1321e-07 -4.86937e-08 1.94411e-08 -6.96833e-09 2.2237e-09 -6.33954e-10 1.62653e-10 -3.78574e-11 
8.05248e-12 -1.57553e-12 2.85148e-13 -4.79672e-14 7.53061e-15 -1.10727e-15 1.52944e-16 -1.98979e-17 2.44383e-18 -2.83915e-19 
3.12556e-20 -3.26561e-21 3.24263e-22 -3.06381e-23 2.75763e-24 -2.36673e-25 1.93859e-26 -1.51669e-27 1.13418e-28 -8.11065e-30 
5.5435e-31 -3.5999e-32 2.14295e-33 -9.18235e-35 -5.47374e-36 3.19487e-36 -8.92845e-37 2.12627e-37 -7.30178e-38 -3.03487e-37 
-3.83348e-36 -4.62635e-35 -5.51573e-34 -6.49054e-33 -7.53492e-32 -8.62537e-31 -9.73042e-30 -1.08109e-28 -1.18211e-27 -1.27105e-26 
-1.34267e-25 -1.39194e-24 -1.41443e-23 -1.40682e-22 -1.36732e-21 -1.29607e-20 -1.19534e-19 -1.06961e-18 -9.25325e-18 -7.70469e-17 
7.66826e-16 4.74237e-15 2.81743e-14 1.60129e-13 8.69704e-13 4.50823e-12 2.2273e-11 1.04724e-10 4.67856e-10 1.9826e-09 
7.9546e-09 3.01587e-08 1.07822e-07 3.62686e-07 1.14503e-06 3.38375e-06 9.33119e-06 2.39252e-05 5.67805e-05 0.000124006 
0.00024728 0.000445386 0.000713493 0.000993813 0.00116185 0.00107215 0.000682415 0.000169359 -0.000148468 -0.000122845 
2.96384e-05 3.19525e-05 -4.19733e-05 -1.98822e-06 3.64167e-05 -1.94124e-05 -9.34449e-06 1.81914e-05 -1.29162e-05 6.36334e-06 
-2.76123e-06 1.25442e-06 -6.0705e-07 2.83753e-07 -1.19082e-07 4.38674e-08 -1.4214e-08 4.09003e-09 -1.05629e-09 2.4722e-10 
-5.28732e-11 1.04056e-11 -1.89551e-12 3.21175e-13 -5.08296e-14 7.5401e-15 -1.05154e-15 1.38225e-16 -1.71641e-17 2.01733e-18 
-2.24798e-19 2.37856e-20 -2.39289e-21 2.29155e-22 -2.09117e-23 1.82018e-24 -1.51241e-25 1.20058e-26 -9.11147e-28 6.61675e-29 
-4.6071e-30 3.09998e-31 -2.08732e-32 1.60224e-33 -1.82515e-34 3.25762e-35 -7.00101e-36 1.52074e-36 -2.74605e-37 5.6173e-37 
6.12224e-36 7.42829e-35 8.87419e-34 1.04541e-32 1.21378e-31 1.38814e-30 1.56279e-29 1.73071e-28 1.88387e-27 2.01363e-26 
2.11129e-25 2.16882e-24 2.17966e-23 2.13956e-22 2.04726e-21 1.90507e-20 1.71906e-19 1.49888e-18 1.25711e-17 1.00815e-16 
-8.41828e-16 -5.47709e-15 -3.41095e-14 -2.02996e-13 -1.15323e-12 -6.24651e-12 -3.2216e-11 -1.57972e-10 -7.35306e-10 -3.24331e-09 
-1.35312e-08 -5.32906e-08 -1.97705e-07 -6.89393e-07 -2.25406e-06 -6.89299e-06 -1.96598e-05 -5.21312e-05 -0.000128029 -0.000289797 
-0.000600584 -0.00112894 -0.00189858 -0.00279854 -0.00350191 -0.00352428 -0.00255488 -0.000927423 0.000354524 0.000512437 
-8.24901e-06 -0.000135336 0.000138286 3.74177e-05 -0.000158966 6.23874e-05 6.29806e-05 -8.85768e-05 5.63121e-05 -2.5877e-05 
1.13803e-05 -5.79633e-06 3.16288e-06 -1.58746e-06 6.894e-07 -2.57964e-07 8.42023e-08 -2.43256e-08 6.3009e-09 -1.47921e-09 
3.17543e-10 -6.27874e-11 1.15038e-11 -1.96276e-12 3.13141e-13 -4.68781e-14 6.60435e-15 -8.77816e-16 1.10311e-16 -1.31305e-17 
1.48282e-18 -1.59094e-19 1.62377e-20 -1.57827e-21 1.46237e-22 -1.29283e-23 1.09139e-24 -8.80404e-26 6.79042e-27 -5.00853e-28 
3.52809e-29 -2.35372e-30 1.42675e-31 -6.15464e-33 -3.20358e-34 1.80432e-34 -4.5669e-35 9.81052e-36 -2.0018e-36 -3.7543e-37 
-9.14017e-36 -1.1025e-34 -1.32008e-33 -1.55684e-32 -1.80763e-31 -2.06502e-30 -2.3194e-29 -2.55924e-28 -2.77157e-27 -2.94278e-26 
-3.05968e-25 -3.1107e-24 -3.0873e-23 -2.98524e-22 -2.80559e-21 -2.55538e-20 -2.24754e-19 -1.90014e-18 -1.53484e-17 -1.17476e-16 
7.89453e-16 5.44439e-15 3.57676e-14 2.2416e-13 1.33888e-12 7.61336e-12 4.11641e-11 2.11329e-10 1.02853e-09 4.73745e-09 
2.06122e-08 8.45429e-08 3.26186e-07 1.18112e-06 4.00425e-06 1.26781e-05 3.73901e-05 0.000102424 0.000259788 0.000607758 
0.00130461 0.00255025 0.00448749 0.00698056 0.00932747 0.0102032 0.00832949 0.00392562 -0.00044424 -0.00177815 
-0.000349862 0.000440676 -0.000387584 -0.000228347 0.000612072 -0.000150034 -0.000337407 0.000380333 -0.000215995 9.2379e-05 
-4.31273e-05 2.59025e-05 -1.58607e-05 8.36926e-06 -3.70126e-06 1.39253e-06 -4.54905e-07 1.31361e-07 -3.40178e-08 7.99177e-09 
-1.71903e-09 3.41088e-10 -6.28096e-11 1.07875e-11 -1.73513e-12 2.62259e-13 -3.73543e-14 5.02567e-15 -6.39967e-16 7.72635e-17 
-8.85698e-18 9.65277e-19 -1.00131e-19 9.89629e-21 -9.32752e-22 8.39087e-23 -7.2098e-24 5.92136e-25 -4.65177e-26 3.49934e-27 
-2.52799e-28 1.77218e-29 -1.2528e-30 1.00362e-31 -1.10833e-32 1.74865e-33 -3.2611e-34 6.19556e-35 -1.1276e-35 2.97999e-36 
1.20301e-35 1.50663e-34 1.80708e-33 2.13347e-32 2.47687e-31 2.82566e-30 3.16506e-29 3.47765e-28 3.74426e-27 3.94537e-26 
4.06282e-25 4.08182e-24 3.99297e-23 3.79412e-22 3.49159e-21 3.10058e-20 2.64448e-19 2.15298e-18 1.65905e-17 1.19521e-16 
-6.01732e-16 -4.46137e-15 -3.1269e-14 -2.08386e-13 -1.31981e-12 -7.93838e-12 -4.5301e-11 -2.44969e-10 -1.25348e-09 -6.05906e-09 
-2.76165e-08 -1.18444e-07 -4.76946e-07 -1.79883e-06 -6.33841e-06 -2.08115e-05 -6.3505e-05 -0.000179614 -0.000469607 -0.00113172 
-0.00250497 -0.00506578 -0.009279 -0.0151678 -0.0215768 -0.0255877 -0.0233589 -0.0135198 -0.00102709 0.00508869 
0.0022344 -0.00102575 0.000909261 0.000988691 -0.00206626 0.000159949 0.00151127 -0.00142734 0.000714864 -0.000284239 
0.000152713 -0.000112082 7.50639e-05 -4.06734e-05 1.80631e-05 -6.77536e-06 2.20248e-06 -6.32967e-07 1.63305e-07 -3.82803e-08 
8.23091e-09 -1.63583e-09 3.02366e-10 -5.22405e-11 8.47085e-12 -1.29336e-12 1.86444e-13 -2.54304e-14 3.28784e-15 -4.03518e-16 
4.70713e-17 -5.2247e-18 5.52325e-19 -5.56582e-20 5.35065e-21 -4.91068e-22 4.3055e-23 -3.60836e-24 2.89183e-25 -2.21569e-26 
1.61867e-27 -1.114e-28 6.86854e-30 -2.90876e-31 -1.58523e-32 7.94661e-33 -1.81161e-33 3.4723e-34 -6.11523e-35 8.84214e-36 
-1.69801e-35 -1.88103e-34 -2.26463e-33 -2.67611e-32 -3.10572e-31 -3.53681e-30 -3.94861e-29 -4.31712e-28 -4.61659e-27 -4.82165e-26 
-4.90995e-25 -4.86506e-24 -4.67915e-23 -4.35532e-22 -3.90865e-21 -3.36602e-20 -2.76408e-19 -2.14558e-18 -1.55443e-17 -1.02998e-16 
3.33502e-16 2.75515e-15 2.11408e-14 1.52975e-13 1.04516e-12 6.74627e-12 4.11369e-11 2.36833e-10 1.28609e-09 6.57864e-09 
3.16453e-08 1.42868e-07 6.03995e-07 2.38515e-06 8.77403e-06 2.99803e-05 9.48763e-05 0.000277285 0.000746463 0.0018468 
0.00419065 0.00870021 0.0164506 0.0280509 0.0422738 0.054218 0.0551603 0.038117 0.00883861 -0.0116683 
-0.00901694 0.00111 -0.0017821 -0.00337461 0.0060479 0.00076687 -0.00573229 0.00461119 -0.00197887 0.000736616 
-0.000517595 0.0004627 -0.000326558 0.000177906 -7.8425e-05 2.91034e-05 -9.35643e-06 2.66125e-06 -6.80453e-07 1.58367e-07 
-3.38859e-08 6.71978e-09 -1.24309e-09 2.1564e-10 -3.52233e-11 5.43493e-12 -7.94124e-13 1.10081e-13 -1.44969e-14 1.81566e-15 
-2.16451e-16 2.45786e-17 -2.66011e-18 2.74563e-19 -2.70415e-20 2.5428e-21 -2.2842e-22 1.96142e-23 -1.61134e-24 1.26857e-25 
-9.61606e-27 7.12198e-28 -5.38256e-29 4.59547e-30 -5.04923e-31 7.19157e-32 -1.167e-32 1.93195e-33 -3.10674e-34 4.92267e-35 
1.04565e-35 2.1533e-34 2.58251e-33 3.05411e-32 3.54178e-31 4.02409e-30 4.47455e-29 4.86319e-28 5.15877e-27 5.33182e-26 
5.35815e-25 5.22262e-24 4.92237e-23 4.4691e-22 3.8896e-21 3.22412e-20 2.52257e-19 1.8385e-18 1.22203e-17 7.12663e-17 
-8.51292e-17 -9.52981e-16 -8.91043e-15 -7.52218e-14 -5.83665e-13 -4.20213e-12 -2.82156e-11 -1.77168e-10 -1.04149e-09 -5.73228e-09 
-2.95184e-08 -1.42023e-07 -6.37233e-07 -2.65994e-06 -1.03005e-05 -3.68881e-05 -0.00012175 -0.000369063 -0.00102419 -0.00259539 
-0.00599781 -0.0126423 -0.0243267 -0.042662 -0.0674376 -0.0932143 -0.105747 -0.0862787 -0.0325811 0.0201329 
0.0272838 0.00341318 0.00314471 0.00927625 -0.0150762 -0.00588824 0.0183301 -0.0125191 0.00432873 -0.00157001 
0.00170879 -0.00176759 0.00126709 -0.000682209 0.000295381 -0.000107492 3.38728e-05 -9.44406e-06 2.36846e-06 -5.41409e-07 
1.1405e-07 -2.23436e-08 4.10209e-09 -7.10079e-10 1.16438e-10 -1.81476e-11 2.69404e-12 -3.8138e-13 5.15102e-14 -6.63801e-15 
8.16092e-16 -9.57038e-17 1.07047e-17 -1.14205e-18 1.16235e-19 -1.12888e-20 1.04659e-21 -9.26506e-23 7.83175e-24 -6.31315e-25 
4.82647e-26 -3.43313e-27 2.1212e-28 -7.9613e-30 -7.19743e-31 2.67712e-31 -5.37556e-32 9.12219e-33 -1.41751e-33 2.05273e-34 
-4.64928e-35 -2.16831e-34 -2.66325e-33 -3.14996e-32 -3.6483e-31 -4.13247e-30 -4.57204e-29 -4.9334e-28 -5.18269e-27 -5.28965e-26 
-5.23197e-25 -4.9994e-24 -4.5972e-23 -4.04773e-22 -3.38979e-21 -2.67511e-20 -1.96225e-19 -1.30853e-18 -7.61354e-18 -3.50817e-17 
-5.53882e-17 -2.48579e-16 -4.81346e-16 6.94054e-15 1.20883e-13 1.27683e-12 1.09888e-11 8.28989e-11 5.64126e-10 3.50951e-09 
2.00916e-08 1.0616e-07 5.18079e-07 2.33332e-06 9.67928e-06 3.68759e-05 0.000128548 0.000408267 0.00117591 0.00305833 
0.00716144 0.0151026 0.0288467 0.050461 0.0815712 0.120386 0.153369 0.148901 0.0795122 -0.0223086 
-0.0637681 -0.0236222 -0.00638206 -0.0202848 0.0311079 0.0234208 -0.0485414 0.0274555 -0.00653243 0.00275414 
-0.0054212 0.00599751 -0.00423835 0.00222192 -0.000933282 0.000328434 -9.97e-05 2.6661e-05 -6.38521e-06 1.3891e-06 
-2.78096e-07 5.18789e-08 -9.12799e-09 1.53175e-09 -2.47391e-10 3.86839e-11 -5.86875e-12 8.62718e-13 -1.22457e-13 1.67118e-14 
-2.18405e-15 2.72488e-16 -3.23864e-17 3.66267e-18 -3.93961e-19 4.03058e-20 -3.9243e-21 3.63957e-22 -3.22102e-23 2.73046e-24 
-2.23737e-25 1.81206e-26 -1.52287e-27 1.43675e-28 -1.62044e-29 2.13887e-30 -3.04803e-31 4.38229e-32 -6.13829e-33 8.27432e-34 
-8.98565e-35 2.16909e-34 2.4624e-33 2.91427e-32 3.36851e-31 3.80013e-30 4.17785e-29 4.46809e-28 4.63851e-27 4.6623e-26 