# vtk DataFile Version 2.0
Titre
ASCII
DATASET STRUCTURED_POINTS
DIMENSIONS 100 100 1
ORIGIN 0.0 0.0 0.0
SPACING 0.1 0.1 0.0
POINT_DATA 10000 
SCALARS rho float
LOOKUP_TABLE default
-0.000385983 -0.000420418 -0.000601241 -0.000711805 -0.000798258 -0.000794933 -0.000700016 -0.00052002 -0.000299013 -9.47451e-05 
4.15556e-05 9.02126e-05 6.99026e-05 2.3169e-05 -1.10558e-05 -1.81115e-05 -7.75961e-06 2.57283e-06 4.36964e-06 8.97754e-07 
-1.44251e-06 -8.57943e-07 3.43212e-07 4.21914e-07 -6.76964e-08 -1.75861e-07 1.60851e-08 6.87136e-08 -8.87216e-09 -2.49676e-08 
6.76765e-09 7.72826e-09 -4.18363e-09 -1.47688e-09 1.87607e-09 -2.06693e-10 -5.07891e-10 2.89691e-10 1.10952e-11 -8.8945e-11 
4.57462e-11 -2.64391e-12 -1.01952e-11 7.07429e-12 -2.18048e-12 -1.50142e-13 5.75518e-13 -3.68707e-13 1.46261e-13 -3.50988e-14 
-6.56784e-16 6.17444e-15 -4.18263e-15 1.98306e-15 -7.79072e-16 2.68941e-16 -8.40863e-17 2.43156e-17 -6.62994e-18 1.74281e-18 
-4.53703e-19 1.20306e-19 -3.31057e-20 9.44838e-21 -2.74126e-21 7.97465e-22 -1.87735e-22 1.90395e-22 5.13794e-22 2.11569e-21 
8.22817e-21 3.20931e-20 1.20554e-19 4.55185e-19 1.62398e-18 5.86491e-18 1.9351e-17 6.5349e-17 1.88024e-16 5.59087e-16 
1.12645e-15 1.96515e-15 -5.70515e-15 -4.84707e-14 -3.09365e-13 -1.39334e-12 -5.76615e-12 -2.2679e-11 -7.59093e-11 -2.81089e-10 
-8.18227e-10 -3.00035e-09 -8.92545e-09 -3.34685e-08 -1.28783e-07 -4.66007e-07 -2.20417e-06 -7.15074e-06 -3.33551e-05 -9.56351e-05 
0.000353955 0.000535835 0.000797527 0.00108282 0.00134445 0.00151318 0.00151983 0.00133189 0.000975346 0.000540709 
0.00015075 -9.38062e-05 -0.000163315 -0.000108187 -1.94882e-05 3.1541e-05 2.98751e-05 5.06248e-06 -9.75071e-06 -6.75074e-06 
1.30082e-06 3.26699e-06 3.85491e-07 -1.28086e-06 -3.80354e-07 4.87789e-07 1.87916e-07 -1.96084e-07 -6.75829e-08 8.31399e-08 
1.44842e-08 -3.4028e-08 2.67252e-09 1.14434e-08 -4.66393e-09 -2.15856e-09 2.42272e-09 -4.01802e-10 -5.53261e-10 4.09588e-10 
-6.79326e-11 -7.41964e-11 6.3735e-11 -2.16061e-11 -1.44581e-12 6.06934e-12 -3.88308e-12 1.44138e-12 -2.42119e-13 -1.01394e-13 
1.1593e-13 -6.54854e-14 2.7964e-14 -9.86452e-15 2.94083e-15 -7.28098e-16 1.35864e-16 -1.00151e-17 -6.26144e-18 4.20109e-18 
-1.72467e-18 5.75821e-19 -1.67616e-19 4.35321e-20 -1.01174e-20 2.06655e-21 -3.84792e-22 -5.45166e-23 -3.70535e-22 -1.29615e-21 
-4.23774e-21 -1.24957e-20 -2.98386e-20 -3.41166e-20 2.1198e-19 2.17239e-18 1.3545e-17 7.01149e-17 3.29411e-16 1.43125e-15 
5.88864e-15 2.28472e-14 8.46215e-14 2.95962e-13 9.84391e-13 3.07282e-12 9.0154e-12 2.47648e-11 6.38917e-11 1.6785e-10 
4.87022e-10 1.93602e-09 8.98815e-09 4.49759e-08 2.1048e-07 9.10117e-07 3.64938e-06 1.30866e-05 4.42175e-05 0.000129048 
-0.000501208 -0.000754696 -0.00117535 -0.00165038 -0.00215185 -0.00255479 -0.00273437 -0.00258457 -0.00208729 -0.00134468 
-0.000561662 3.66967e-05 0.00031399 0.000290254 0.000115863 -3.56881e-05 -7.69823e-05 -3.48895e-05 1.28751e-05 2.13984e-05 
3.75714e-06 -7.81421e-06 -3.97704e-06 2.42838e-06 2.17045e-06 -7.75647e-07 -9.91481e-07 3.09929e-07 4.068e-07 -1.61368e-07 
-1.43068e-07 8.9861e-08 3.4429e-08 -4.33417e-08 1.47404e-09 1.48457e-08 -6.61704e-09 -1.96364e-09 3.10205e-09 -1.02263e-09 
-3.60695e-10 5.1051e-10 -2.16356e-10 3.16873e-12 5.33397e-11 -3.74569e-11 1.39039e-11 -1.65135e-12 -1.71649e-12 1.57239e-12 
-8.23906e-13 3.22663e-13 -9.76692e-14 2.04873e-14 -6.90046e-16 -2.08746e-15 1.41021e-15 -6.51495e-16 2.52425e-16 -8.73614e-17 
2.77863e-17 -8.24524e-18 2.30175e-18 -6.07107e-19 1.51531e-19 -3.57855e-20 7.92022e-21 -1.87704e-21 -5.59532e-22 -3.78345e-21 
-1.55158e-20 -6.39921e-20 -2.60206e-19 -1.04128e-18 -4.0904e-18 -1.57266e-17 -5.8999e-17 -2.15142e-16 -7.59343e-16 -2.57903e-15 
-8.37106e-15 -2.56973e-14 -7.35959e-14 -1.92253e-13 -4.43246e-13 -8.55605e-13 -1.37504e-12 -3.33844e-12 -2.44957e-11 -1.97209e-10 
-1.28539e-09 -7.09325e-09 -3.44407e-08 -1.51434e-07 -6.10513e-07 -2.27735e-06 -7.88377e-06 -2.52848e-05 -7.5072e-05 -0.000203483 
0.000512013 0.00090278 0.00147631 0.0022492 0.00313885 0.00400881 0.00462609 0.00475366 0.00423851 0.00312592 
0.00169431 0.00037149 -0.000460347 -0.000663462 -0.000408994 -4.35817e-05 0.000152108 0.000125033 9.60342e-06 -4.96068e-05 
-2.69267e-05 1.14038e-05 1.5527e-05 -1.16699e-06 -7.19849e-06 -4.45467e-07 3.20097e-06 2.85238e-07 -1.41852e-06 -1.48311e-08 
6.04852e-07 -1.0152e-07 -2.21995e-07 1.01311e-07 5.23975e-08 -5.70418e-08 4.62792e-09 1.78351e-08 -1.03854e-08 -2.9661e-10 
3.43771e-09 -1.97084e-09 2.38392e-10 3.94062e-10 -3.30955e-10 1.30548e-10 -1.29542e-11 -2.06064e-11 1.79351e-11 -9.01817e-12 
3.21344e-12 -7.4323e-13 5.50213e-15 1.09415e-13 -7.63815e-14 3.72356e-14 -1.52353e-14 5.56685e-15 -1.87325e-15 5.91281e-16 
-1.77166e-16 5.07808e-17 -1.39868e-17 3.70933e-18 -9.47175e-19 2.32561e-19 -5.4689e-20 1.26268e-20 -1.44559e-21 5.31795e-21 
1.85408e-20 7.10935e-20 2.63903e-19 9.50244e-19 3.29765e-18 1.09304e-17 3.4114e-17 9.77473e-17 2.43758e-16 4.51361e-16 
9.87242e-17 -4.48164e-15 -2.86561e-14 -1.21693e-13 -3.81979e-13 -6.70243e-13 1.96266e-12 2.86807e-11 1.9629e-10 1.06519e-09 
5.07388e-09 2.20333e-08 8.87542e-08 3.34563e-07 1.18458e-06 3.94243e-06 1.23064e-05 3.58454e-05 9.65501e-05 0.000236515 
-0.000509455 -0.000984931 -0.00170617 -0.00277224 -0.00413673 -0.00566106 -0.00703219 -0.00783051 -0.00765831 -0.00634878 
-0.00413469 -0.00164812 0.000323424 0.00123443 0.00108596 0.0003946 -0.000188199 -0.000322107 -0.000125123 7.34661e-05 
9.17375e-05 4.50618e-06 -3.99742e-05 -1.26022e-05 1.60155e-05 8.13487e-06 -6.8403e-06 -4.01941e-06 3.26165e-06 1.59961e-06 
-1.66131e-06 -4.10539e-07 8.02114e-07 -4.9465e-08 -3.07788e-07 1.33062e-07 6.15554e-08 -7.70009e-08 1.65928e-08 1.74238e-08 
-1.5469e-08 3.86799e-09 2.24387e-09 -2.62067e-09 1.17942e-09 -1.39579e-10 -1.96764e-10 1.78621e-10 -8.88402e-11 2.87155e-11 
-3.87828e-12 -2.41883e-12 2.43735e-12 -1.37277e-12 6.1154e-13 -2.35621e-13 8.17828e-14 -2.6219e-14 7.91079e-15 -2.28244e-15 
6.38564e-16 -1.75176e-16 4.74453e-17 -1.27077e-17 3.35498e-18 -8.67536e-19 2.18058e-19 -5.29665e-20 1.21532e-20 -3.18045e-21 
-2.79372e-23 2.86336e-21 3.56536e-20 2.39906e-19 1.33142e-18 6.61825e-18 3.03617e-17 1.30019e-16 5.20459e-16 1.933e-15 
6.52344e-15 1.89772e-14 3.98851e-14 -5.27119e-15 -7.15391e-13 -5.56723e-12 -3.1967e-11 -1.59222e-10 -7.23818e-10 -3.07016e-09 
-1.22849e-08 -4.66354e-08 -1.68386e-07 -5.78548e-07 -1.88903e-06 -5.84311e-06 -1.70295e-05 -4.63625e-05 -0.000116282 -0.000262402 
0.000411626 0.000930368 0.0017233 0.00303119 0.00486847 0.00717643 0.00961843 0.0116082 0.0124107 0.0114407 
0.00862675 0.00463913 0.000741644 -0.00178038 -0.00233517 -0.00137729 -5.82654e-05 0.000619513 0.000462066 -4.4528e-06 
-0.0002138 -9.09712e-05 6.62979e-05 6.07109e-05 -1.91023e-05 -3.20875e-05 6.68096e-06 1.5992e-05 -3.61625e-06 -7.47838e-06 
2.63521e-06 3.01538e-06 -1.86608e-06 -8.14294e-07 1.05823e-06 -5.60601e-08 -3.99401e-07 2.06009e-07 4.50586e-08 -9.8557e-08 
4.17134e-08 7.08789e-09 -1.79036e-08 9.93335e-09 -1.73276e-09 -1.51166e-09 1.57396e-09 -8.04976e-10 2.40968e-10 -6.11816e-12 
-4.50528e-11 3.52621e-11 -1.83334e-11 7.67006e-12 -2.73971e-12 8.5549e-13 -2.35075e-13 5.6421e-14 -1.14988e-14 1.83799e-15 
-1.66902e-16 -1.95962e-17 1.24942e-17 -2.31077e-18 -3.33779e-19 4.51959e-19 -2.22707e-19 8.1944e-20 -2.65572e-20 3.50208e-21 
-1.72007e-20 -6.3254e-20 -2.57709e-19 -1.01381e-18 -3.85359e-18 -1.39957e-17 -4.76929e-17 -1.47106e-16 -3.74609e-16 -5.11561e-16 
2.27414e-15 2.70664e-14 1.79135e-13 9.79927e-13 4.83044e-12 2.21758e-11 9.63135e-11 3.99042e-10 1.58433e-09 6.04197e-09 
2.21503e-08 7.80381e-08 2.6385e-07 8.5395e-07 2.6353e-06 7.70947e-06 2.11971e-05 5.40604e-05 0.000125192 0.000253324 
-0.000270406 -0.00073817 -0.001489 -0.0028613 -0.0049973 -0.00799023 -0.0116173 -0.0152438 -0.0178221 -0.0181806 
-0.0155744 -0.0102806 -0.00381527 0.00158013 0.00409613 0.00346861 0.00114794 -0.000783635 -0.00115828 -0.000388144 
0.00032609 0.000333502 -2.6551e-05 -0.000165326 -2.17496e-05 7.91876e-05 1.72018e-05 -4.05312e-05 -7.83245e-06 2.14401e-05 
1.29723e-06 -1.08236e-05 1.7995e-06 4.55774e-06 -2.28952e-06 -1.13864e-06 1.44546e-06 -2.09711e-07 -4.61174e-07 3.33625e-07 
-2.89113e-08 -9.85929e-08 7.46239e-08 -1.9698e-08 -8.79756e-09 1.22106e-08 -6.76101e-09 1.988e-09 1.23762e-10 -5.54892e-10 
4.0472e-10 -2.01421e-10 7.86662e-11 -2.46167e-11 5.76944e-12 -6.34964e-13 -2.8402e-13 2.48639e-13 -1.21657e-13 4.7737e-14 
-1.63548e-14 5.06017e-15 -1.4368e-15 3.77291e-16 -9.18533e-17 2.06948e-17 -4.28513e-18 8.03279e-19 -1.30858e-19 2.05116e-20 
1.11415e-20 4.36932e-20 1.43907e-19 4.00398e-19 7.13849e-19 -1.42497e-18 -2.54182e-17 -1.88793e-16 -1.12464e-15 -6.00014e-15 
-2.98241e-14 -1.40675e-13 -6.3587e-13 -2.76993e-12 -1.1667e-11 -4.76056e-11 -1.88352e-10 -7.22754e-10 -2.68871e-09 -9.68763e-09 
-3.37548e-08 -1.13481e-07 -3.66972e-07 -1.13664e-06 -3.35242e-06 -9.33854e-06 -2.42773e-05 -5.78278e-05 -0.000122347 -0.000216232 
0.000108667 0.000446984 0.00102353 0.00222015 0.00430747 0.00758639 0.0120962 0.0173866 0.0223215 0.025193 
0.0242956 0.0188857 0.0100402 0.000683163 -0.00566403 -0.00693699 -0.00396538 8.32585e-05 0.00212934 0.00148568 
-0.00012461 -0.000772123 -0.000256761 0.000287666 0.000187006 -0.000120155 -0.000105705 6.42549e-05 5.54672e-05 -4.00763e-05 
-2.48188e-05 2.56475e-05 6.96919e-06 -1.47071e-05 1.44093e-06 6.29278e-06 -3.3167e-06 -1.15258e-06 1.97413e-06 -6.43706e-07 
-3.72466e-07 4.74527e-07 -1.86763e-07 -2.92704e-08 8.14628e-08 -5.21799e-08 1.64632e-08 1.42863e-09 -5.37793e-09 3.93207e-09 
-1.91254e-09 6.87349e-10 -1.66967e-10 6.61717e-12 2.14309e-11 -1.6051e-11 8.12658e-12 -3.42063e-12 1.27696e-12 -4.35617e-13 
1.38048e-13 -4.10384e-14 1.15107e-14 -3.05604e-15 7.69065e-16 -1.83445e-16 4.14248e-17 -8.83441e-18 1.77254e-18 -3.30927e-19 
6.66953e-20 4.27584e-20 2.83739e-19 1.47717e-18 7.46544e-18 3.6619e-17 1.74852e-16 8.14311e-16 3.70354e-15 1.64627e-14 
7.15545e-14 3.04156e-13 1.26429e-12 5.13751e-12 2.03984e-11 7.90772e-11 2.99015e-10 1.10146e-09 3.9462e-09 1.37225e-08 
4.61964e-08 1.50059e-07 4.68303e-07 1.39618e-06 3.94604e-06 1.04591e-05 2.55846e-05 5.62884e-05 0.000106254 0.000154272 
1.73905e-05 -0.00014577 -0.000459162 -0.0012507 -0.002865 -0.0057745 -0.0103598 -0.0166017 -0.0236826 -0.0297647 
-0.0322893 -0.0290174 -0.0195492 -0.00640997 0.00546076 0.0112147 0.00930987 0.00285943 -0.00260783 -0.0035682 
-0.00108 0.0011499 0.00104103 -0.000193507 -0.000547449 2.64414e-05 0.000291126 -2.13936e-05 -0.000167973 3.08604e-05 
9.39075e-05 -3.52824e-05 -4.39737e-05 3.12424e-05 1.23967e-05 -2.0226e-05 2.76765e-06 7.96155e-06 -5.39627e-06 -3.03389e-07 
2.37889e-06 -1.42593e-06 8.86969e-08 4.44589e-07 -3.60913e-07 1.33519e-07 5.3436e-09 -4.28199e-08 3.32414e-08 -1.62012e-08 
5.32584e-09 -7.61108e-10 -4.59067e-10 4.91741e-10 -2.92059e-10 1.3764e-10 -5.63458e-11 2.08586e-11 -7.14465e-12 2.29823e-12 
-7.01222e-13 2.04261e-13 -5.70175e-14 1.5276e-14 -3.92813e-15 9.68426e-16 -2.28511e-16 5.14985e-17 -1.10608e-17 2.24868e-18 
-4.75602e-19 -1.06127e-19 -8.82019e-19 -4.00946e-18 -1.83016e-17 -8.23735e-17 -3.6556e-16 -1.59839e-15 -6.88109e-15 -2.91455e-14 
-1.21366e-13 -4.96459e-13 -1.99316e-12 -7.84594e-12 -3.02481e-11 -1.1406e-10 -4.20034e-10 -1.50786e-09 -5.26511e-09 -1.78346e-08 
-5.84095e-08 -1.84186e-07 -5.56216e-07 -1.5972e-06 -4.31905e-06 -1.08461e-05 -2.47579e-05 -4.95234e-05 -8.05456e-05 -8.52125e-05 
-7.75641e-05 -6.94152e-05 -1.96119e-05 0.000268401 0.00109831 0.00297685 0.00653504 0.0122739 0.0200842 0.0286865 
0.035387 0.0366764 0.0299223 0.0155767 -0.00165799 -0.014392 -0.0169127 -0.00960654 0.00072036 0.0061141 
0.0041907 -0.000522516 -0.00235235 -0.000664068 0.000947031 0.000453589 -0.000480243 -0.000223322 0.000320529 9.31732e-05 
-0.00022187 -1.2696e-05 0.00013769 -3.2193e-05 -6.60308e-05 4.26379e-05 1.52176e-05 -2.82869e-05 7.93143e-06 8.14569e-06 
-8.49228e-06 2.26351e-06 1.77045e-06 -2.15079e-06 1.0029e-06 -5.5148e-08 -2.79466e-07 2.46379e-07 -1.2482e-07 3.84125e-08 
-1.05836e-09 -7.8926e-09 6.60557e-09 -3.71351e-09 1.70601e-09 -6.83992e-10 2.47571e-10 -8.27398e-11 2.59915e-11 -7.79266e-12 
2.25874e-12 -6.38968e-13 1.7728e-13 -4.82461e-14 1.28325e-14 -3.31712e-15 8.28388e-16 -1.98819e-16 4.56733e-17 -9.99366e-18 
2.15786e-18 -8.84409e-20 1.55843e-18 6.66829e-18 2.97715e-17 1.30991e-16 5.68747e-16 2.43524e-15 1.0275e-14 4.2688e-14 
1.74477e-13 7.00924e-13 2.76469e-12 1.06942e-11 4.05121e-11 1.50063e-10 5.42517e-10 1.91009e-09 6.53208e-09 2.1628e-08 
6.90598e-08 2.1159e-07 6.18023e-07 1.70599e-06 4.39687e-06 1.03923e-05 2.18828e-05 3.89049e-05 5.13457e-05 2.68679e-05 
6.95471e-05 0.00014487 0.000262573 0.000383557 0.000351404 -0.000185943 -0.00184868 -0.00544724 -0.0116418 -0.0202826 
-0.0296516 -0.0361933 -0.0354903 -0.0247581 -0.00582457 0.0138522 0.024421 0.0204303 0.0061107 -0.0069039 
-0.0093851 -0.00284329 0.00326716 0.00291044 -0.000626632 -0.00147388 0.000269218 0.000758422 -0.000325004 -0.000442024 
0.000337031 0.000228176 -0.000287511 -6.0405e-05 0.000196014 -4.17956e-05 -8.97064e-05 6.62497e-05 9.14469e-06 -3.72398e-05 
1.94717e-05 3.15592e-06 -1.04277e-05 6.57147e-06 -1.1672e-06 -1.43284e-06 1.58687e-06 -8.77962e-07 2.70037e-07 1.60071e-08 
-8.42954e-08 6.74723e-08 -3.75188e-08 1.69231e-08 -6.52546e-09 2.2013e-09 -6.56312e-10 1.73404e-10 -4.0517e-11 8.35838e-12 
-1.55085e-12 2.87826e-13 -6.9566e-14 2.44479e-14 -9.73265e-15 3.64892e-15 -1.23246e-15 3.7581e-16 -1.04552e-16 2.6776e-17 
-6.4765e-18 9.68907e-19 -2.34696e-18 -9.1177e-18 -4.06767e-17 -1.77665e-16 -7.65771e-16 -3.253e-15 -1.36109e-14 -5.60469e-14 
-2.26932e-13 -9.02559e-13 -3.52203e-12 -1.3467e-11 -5.03789e-11 -1.84055e-10 -6.55314e-10 -2.26812e-09 -7.60817e-09 -2.4642e-08 
-7.67077e-08 -2.28139e-07 -6.43257e-07 -1.7014e-06 -4.15808e-06 -9.174e-06 -1.75608e-05 -2.6879e-05 -2.56936e-05 7.6188e-06 
-2.48287e-05 -9.94359e-05 -0.000243486 -0.000527726 -0.000971408 -0.00149676 -0.00178555 -0.00116716 0.00134412 0.00665943 
0.0147839 0.0238108 0.0295439 0.0268144 0.0128572 -0.00884371 -0.0278808 -0.0324614 -0.019095 0.00210317 
0.0144883 0.0104152 -0.00124344 -0.00621837 -0.00188431 0.00241281 0.00102977 -0.00124762 -0.000188917 0.000960584 
-0.000204974 -0.000714334 0.000373605 0.00039744 -0.000393346 -9.56143e-05 0.000279273 -8.57571e-05 -0.000103619 0.000106656 
-1.84632e-05 -3.71399e-05 3.55474e-05 -1.16258e-05 -5.04382e-06 8.66007e-06 -5.55968e-06 1.87239e-06 1.36385e-07 -6.81157e-07 
5.62748e-07 -3.17097e-07 1.40515e-07 -5.04244e-08 1.41474e-08 -2.52197e-09 -1.97308e-10 4.39991e-10 -2.54325e-10 1.08318e-10 
-3.89e-11 1.23387e-11 -3.5291e-12 9.18926e-13 -2.18401e-13 4.71964e-14 -9.15206e-15 1.54129e-15 -2.05571e-16 1.36872e-17 
3.56113e-18 -1.3238e-18 3.07847e-18 1.12196e-17 5.01437e-17 2.18962e-16 9.41708e-16 3.98936e-15 1.66299e-14 6.81615e-14 
2.74432e-13 1.08418e-12 4.19755e-12 1.59031e-11 5.88604e-11 2.12399e-10 7.45489e-10 2.53778e-09 8.35014e-09 2.64428e-08 
8.01615e-08 2.31025e-07 6.27163e-07 1.58329e-06 3.64758e-06 7.44024e-06 1.27149e-05 1.60032e-05 8.33495e-06 -1.70077e-05 
-1.58201e-05 8.524e-06 7.28829e-05 0.000267575 0.000710128 0.00155045 0.00287497 0.00453522 0.00593691 0.00596243 
0.0033041 -0.00258444 -0.0101481 -0.0150059 -0.01138 0.00362433 0.0250546 0.039783 0.034971 0.011068 
-0.0142628 -0.0207785 -0.00705484 0.00772559 0.00766439 -0.00107416 -0.00357692 0.000489272 0.00134673 -0.00112227 
-0.00045159 0.0013555 -8.77409e-05 -0.00111378 0.000476085 0.00059575 -0.000587235 -6.96196e-05 0.000383156 -0.000197498 
-7.04312e-05 0.000149215 -7.91193e-05 -4.91421e-06 3.8222e-05 -3.07763e-05 1.23295e-05 1.41736e-07 -4.34716e-06 3.93151e-06 
-2.30166e-06 1.00927e-06 -3.24469e-07 5.48861e-08 1.82765e-08 -2.35306e-08 1.44969e-08 -6.92471e-09 2.83554e-09 -1.03583e-09 
3.44532e-10 -1.05605e-10 3.00573e-11 -7.9829e-12 1.98438e-12 -4.62365e-13 1.00977e-13 -2.06322e-14 3.92724e-15 -6.90564e-16 
1.10147e-16 -1.59787e-17 -1.32016e-18 -1.28463e-17 -5.77145e-17 -2.51065e-16 -1.08132e-15 -4.57657e-15 -1.90445e-14 -7.78319e-14 
-3.12084e-13 -1.22629e-12 -4.71554e-12 -1.77168e-11 -6.49149e-11 -2.31442e-10 -8.00817e-10 -2.68059e-09 -8.64645e-09 -2.67453e-08 
-7.88449e-08 -2.19741e-07 -5.72679e-07 -1.37417e-06 -2.96543e-06 -5.53341e-06 -8.26459e-06 -8.00766e-06 -1.21014e-07 1.04191e-05 
2.78422e-05 5.03676e-05 8.27092e-05 8.91e-05 -2.02573e-05 -0.000432224 -0.00144673 -0.0034139 -0.00653407 -0.0105188 
-0.0142731 -0.0159765 -0.0140146 -0.00877581 -0.00417853 -0.00661641 -0.0197447 -0.0377993 -0.0453493 -0.0294766 
0.0034457 0.0273891 0.0220374 -0.00195138 -0.0146492 -0.00571536 0.00526728 0.00313116 -0.00197677 1.5927e-05 
0.00138109 -0.00162448 -0.000888494 0.00207321 1.91847e-05 -0.00168565 0.000766736 0.000754013 -0.000923231 0.000128309 
0.000437118 -0.000389187 7.91209e-05 0.000124327 -0.000142932 7.24253e-05 -6.96538e-06 -2.17529e-05 2.30911e-05 -1.45016e-05 
6.43531e-06 -1.82036e-06 -2.21562e-08 4.45046e-07 -3.70619e-07 2.15799e-07 -1.04236e-07 4.42294e-08 -1.69453e-08 5.95498e-09 
-1.93912e-09 5.89184e-10 -1.67877e-10 4.50208e-11 -1.1394e-11 2.72641e-12 -6.17522e-13 1.32452e-13 -2.68951e-14 5.16395e-15 
-9.35442e-16 1.60495e-16 -2.31478e-17 1.86605e-17 6.04211e-17 2.72125e-16 1.16799e-15 4.94842e-15 2.05699e-14 8.38853e-14 
3.35187e-13 1.31064e-12 5.0075e-12 1.86612e-11 6.76924e-11 2.38429e-10 8.13051e-10 2.67466e-09 8.45089e-09 2.55049e-08 
7.30057e-08 1.96351e-07 4.89849e-07 1.11262e-06 2.23502e-06 3.77487e-06 4.8187e-06 3.29524e-06 -1.55645e-06 -5.75428e-07 
-1.48647e-05 -4.82333e-05 -0.000119175 -0.000258033 -0.000477652 -0.000737284 -0.000861553 -0.00045185 0.00114636 0.00469321 
0.0106003 0.0182208 0.0253404 0.028764 0.0266613 0.0216165 0.0207753 0.0296288 0.042537 0.0420693 
0.0160738 -0.0213538 -0.0364223 -0.0146909 0.0155821 0.0183068 -0.000896875 -0.00913324 -0.00103418 0.00229757 
-0.00109918 0.00100967 0.00230706 -0.00267073 -0.0016529 0.00322806 -0.000100733 -0.00240866 0.00147722 0.000629537 
-0.00135093 0.000651471 0.000220875 -0.000526947 0.000357725 -8.20984e-05 -8.08125e-05 0.00011265 -7.90158e-05 3.68809e-05 
-9.57935e-06 -2.12548e-06 4.70642e-06 -3.77927e-06 2.26583e-06 -1.14632e-06 5.12838e-07 -2.07816e-07 7.73891e-08 -2.674e-08 
8.63184e-09 -2.61656e-09 7.47738e-10 -2.02067e-10 5.17622e-11 -1.25925e-11 2.91337e-12 -6.41627e-13 1.34588e-13 -2.68891e-14 
5.11189e-15 -9.21335e-16 1.50353e-16 -3.45596e-17 -6.35157e-17 -2.73375e-16 -1.19523e-15 -5.05242e-15 -2.10012e-14 -8.54844e-14 
-3.40492e-13 -1.32515e-12 -5.03104e-12 -1.85971e-11 -6.678e-11 -2.32319e-10 -7.80452e-10 -2.52177e-09 -7.79873e-09 -2.29401e-08 
-6.36676e-08 -1.64932e-07 -3.92854e-07 -8.41552e-07 -1.56509e-06 -2.37171e-06 -2.54413e-06 -1.15436e-06 5.35642e-07 -4.20648e-06 
-2.78147e-06 1.12834e-05 5.33015e-05 0.000175512 0.000463594 0.0010457 0.00205216 0.00350277 0.005098 0.00596875 
0.00458929 -0.00078145 -0.0108461 -0.0236073 -0.0339306 -0.036395 -0.0309455 -0.0256231 -0.0292636 -0.0374885 
-0.0308626 0.0014824 0.0365763 0.0356186 -0.00219534 -0.0289621 -0.0139128 0.0116416 0.0103798 -0.00248015 
-0.00237554 -0.000496498 -0.00296867 0.00230813 0.00442355 -0.00432736 -0.00245565 0.00501554 -0.00102731 -0.00294719 
0.00280535 -0.000316369 -0.00140564 0.00141038 -0.000549407 -0.000184831 0.000444347 -0.00036622 0.000188367 -5.02483e-05 
-1.70547e-05 3.42093e-05 -2.88088e-05 1.8327e-05 -9.86064e-06 4.69255e-06 -2.02193e-06 8.00161e-07 -2.93652e-07 1.00638e-07 
-3.23795e-08 9.82132e-09 -2.81788e-09 7.66866e-10 -1.98399e-10 4.88852e-11 -1.14887e-11 2.57823e-12 -5.52959e-13 1.13414e-13 
-2.22662e-14 4.2011e-15 -7.73446e-16 1.66424e-16 1.98105e-17 2.83193e-16 1.14105e-15 4.88596e-15 2.02721e-14 8.2408e-14 
3.27253e-13 1.26786e-12 4.78351e-12 1.75389e-11 6.23388e-11 2.14154e-10 7.08508e-10 2.24752e-09 6.79857e-09 1.9474e-08 
5.23427e-08 1.30401e-07 2.95948e-07 5.96287e-07 1.02305e-06 1.38529e-06 1.25036e-06 4.42106e-07 4.04287e-07 3.15464e-06 
9.29105e-06 1.68225e-05 2.38823e-05 5.52773e-06 -0.000107836 -0.000475574 -0.00139636 -0.0033206 -0.00673797 -0.0118222 
-0.0177921 -0.0222539 -0.0213124 -0.0114758 0.00667405 0.0258247 0.0350729 0.0298716 0.0195488 0.0186286 
0.0253061 0.017211 -0.0158417 -0.042123 -0.0224543 0.0235055 0.0334398 -0.00133737 -0.022098 -0.00562437 
0.00785864 0.00359205 0.00202163 -0.00172939 -0.0072476 0.00365659 0.00734386 -0.00725531 -0.00227424 0.00733168 
-0.00369946 -0.00209347 0.00418098 -0.00253185 2.35584e-05 0.00135053 -0.0014059 0.000834003 -0.00025706 -7.69677e-05 
0.000185526 -0.000170814 0.000117356 -6.78457e-05 3.45862e-05 -1.59278e-05 6.72425e-06 -2.62813e-06 9.57787e-07 -3.27256e-07 
1.05296e-07 -3.20189e-08 9.22995e-09 -2.52877e-09 6.59923e-10 -1.64345e-10 3.91175e-11 -8.91021e-12 1.94413e-12 -4.06566e-13 
8.14496e-14 -1.55578e-14 2.76369e-15 -4.17826e-16 -4.59008e-17 -2.04114e-16 -1.0782e-15 -4.43818e-15 -1.85209e-14 -7.51405e-14 
-2.97598e-13 -1.14793e-12 -4.30454e-12 -1.56556e-11 -5.50771e-11 -1.86818e-10 -6.08562e-10 -1.89462e-09 -5.60316e-09 -1.56196e-08 
-4.0626e-08 -9.72385e-08 -2.10025e-07 -3.97532e-07 -6.28848e-07 -7.63412e-07 -5.97616e-07 -2.42119e-07 -4.40728e-07 -1.76319e-07 
-4.624e-06 -1.69282e-05 -4.48888e-05 -0.000100746 -0.000183995 -0.000246033 -0.00010827 0.000667301 0.00291342 0.00784575 
0.0166126 0.0291218 0.0423615 0.0496103 0.042939 0.0199621 -0.00960079 -0.0270888 -0.0216776 -0.00557681 
-0.00253447 -0.0137252 -0.0102159 0.0198359 0.0360816 0.00270689 -0.0379213 -0.0220046 0.0225369 0.0230166 
-0.00756505 -0.0130408 -0.00203164 0.00339438 0.00899074 -0.000961694 -0.013135 0.00644436 0.00980377 -0.0123229 
0.00115432 0.00838647 -0.0082542 0.00227199 0.0028584 -0.00431412 0.00308449 -0.00117369 -0.000191594 0.000764642 
-0.000795218 0.000598148 -0.000374799 0.00020609 -0.000102062 4.62227e-05 -1.93367e-05 7.52589e-06 -2.74009e-06 9.37423e-07 
-3.02482e-07 9.23584e-08 -2.6762e-08 7.37806e-09 -1.9397e-09 4.87266e-10 -1.17161e-10 2.70039e-11 -5.97355e-12 1.26983e-12 
-2.59973e-13 5.16287e-14 -1.02087e-14 2.19711e-15 -5.53196e-16 4.3937e-16 7.93561e-16 3.89883e-15 1.59558e-14 6.48254e-14 
2.56046e-13 9.83614e-13 3.66654e-12 1.32298e-11 4.60721e-11 1.54306e-10 4.949e-10 1.51198e-09 4.37095e-09 1.1855e-08 
2.98295e-08 6.85759e-08 1.40954e-07 2.50795e-07 3.66819e-07 4.03374e-07 2.85076e-07 1.26486e-07 4.57955e-08 -1.27537e-06 
-1.64723e-06 2.09366e-06 1.66907e-05 6.50636e-05 0.000190313 0.000459887 0.00093826 0.00158889 0.00205415 0.00131274 
-0.00260008 -0.0122803 -0.0292918 -0.0510252 -0.0681357 -0.0671387 -0.0411444 -0.00220721 0.0216117 0.0128806 
-0.00983632 -0.010162 0.0127466 0.015972 -0.0151614 -0.0273787 0.0111697 0.0367934 -0.0010425 -0.0350734 
-0.00680004 0.0229403 0.00887724 -0.00800224 -0.0108389 -0.00176786 0.0167598 -0.000662103 -0.0197465 0.0133918 
0.00821293 -0.0182408 0.010401 0.00291203 -0.0100584 0.00915982 -0.00440219 -1.89808e-05 0.00238265 -0.0028949 
0.00241108 -0.00164965 0.000985382 -0.000528797 0.000259029 -0.000116967 4.90196e-05 -1.91632e-05 7.0171e-06 -2.41547e-06 
7.84189e-07 -2.40845e-07 7.01772e-08 -1.94521e-08 5.14209e-09 -1.29934e-09 3.14495e-10 -7.30464e-11 1.63041e-11 -3.49942e-12 
7.21163e-13 -1.41381e-13 2.53741e-14 -3.50657e-15 -1.44254e-16 2.57107e-16 -1.01469e-15 -2.9908e-15 -1.31109e-14 -5.28463e-14 
-2.08461e-13 -7.97732e-13 -2.95699e-12 -1.05881e-11 -3.65084e-11 -1.20759e-10 -3.81402e-10 -1.14364e-09 -3.23225e-09 -8.53107e-09 
-2.07723e-08 -4.58932e-08 -8.98725e-08 -1.50683e-07 -2.04855e-07 -2.06197e-07 -1.30644e-07 -2.5886e-08 1.85061e-07 7.96289e-07 
2.97175e-06 6.86549e-06 1.23814e-05 1.17297e-05 -2.42813e-05 -0.000173334 -0.000600537 -0.00158591 -0.00347336 -0.00641345 
-0.00976869 -0.011281 -0.00674729 0.00827588 0.0336728 0.0592582 0.0661089 0.0413961 -0.00169039 -0.0259796 
-0.00914582 0.0199435 0.0120946 -0.02484 -0.0269325 0.0163474 0.0286859 -0.0143426 -0.0262585 0.019032 
0.0264593 -0.0180458 -0.0222726 0.00973226 0.0155776 0.00221141 -0.0163521 -0.0076909 0.0257129 -0.00554402 
-0.0235576 0.0257777 -0.0041688 -0.0162644 0.0208854 -0.0128365 0.00188759 0.00551566 -0.008152 0.00757433 
-0.00568349 0.00371115 -0.00217813 0.00116774 -0.000576899 0.000264035 -0.000112377 4.462e-05 -1.6577e-05 5.77928e-06 
-1.89631e-06 5.87339e-07 -1.72224e-07 4.79503e-08 -1.27125e-08 3.21824e-09 -7.80024e-10 1.81461e-10 -4.06167e-11 8.77297e-12 
-1.83877e-12 3.79638e-13 -8.0507e-14 1.92403e-14 -5.75396e-15 2.31769e-15 -3.63524e-16 2.81365e-15 9.90158e-15 4.08646e-14 
1.60568e-13 6.12559e-13 2.25881e-12 8.02984e-12 2.74252e-11 8.9627e-11 2.78876e-10 8.21093e-10 2.26997e-09 5.8342e-09 
1.37595e-08 2.92555e-08 5.4704e-08 8.67404e-08 1.10189e-07 1.01579e-07 5.23551e-08 -2.38816e-08 -1.34912e-07 1.11324e-07 
-6.63428e-07 -4.34314e-06 -1.44288e-05 -3.86047e-05 -8.34929e-05 -0.000139692 -0.000138874 0.000132127 0.00115952 0.00380468 
0.00916826 0.0178494 0.0283775 0.0355603 0.031233 0.0103275 -0.0194501 -0.03534 -0.0173739 0.022541 
0.0400567 0.0102729 -0.0254192 -0.0083802 0.036203 0.0245244 -0.0340192 -0.0355611 0.0201943 0.021642 
-0.0212598 -0.00592489 0.0255077 -0.00151259 -0.0205917 -0.00112637 0.0136753 0.0113194 -0.0210488 -0.00921505 
0.0348607 -0.020652 -0.014359 0.0342094 -0.0277712 0.00801505 0.009272 -0.0175492 0.0181653 -0.0148916 
0.0106515 -0.00690627 0.00412097 -0.00227437 0.00116255 -0.000550764 0.000242128 -9.89608e-05 3.76934e-05 -1.34168e-05 
4.47598e-06 -1.40381e-06 4.15194e-07 -1.16164e-07 3.08411e-08 -7.79468e-09 1.88121e-09 -4.34864e-10 9.65251e-11 -2.05916e-11 
4.20377e-12 -8.0434e-13 1.33197e-13 -1.22602e-14 -4.36029e-15 3.78731e-15 -2.44009e-15 -8.64339e-16 -7.7003e-15 -2.96533e-14 
-1.17162e-13 -4.4549e-13 -1.63529e-12 -5.77472e-12 -1.9548e-11 -6.31577e-11 -1.93733e-10 -5.60523e-10 -1.51716e-09 -3.80148e-09 
-8.69703e-09 -1.78329e-08 -3.19327e-08 -4.80682e-08 -5.72237e-08 -4.77142e-08 -1.66024e-08 2.34859e-08 1.01689e-08 -3.61711e-07 
-1.02222e-06 -1.20605e-06 9.34664e-07 1.33184e-05 5.52001e-05 0.000164482 0.000396831 0.000794175 0.00128036 0.00143196 
0.000126901 -0.00470687 -0.0156036 -0.0334748 -0.0541144 -0.0665232 -0.0587698 -0.0321941 -0.00998067 -0.0187066 
-0.0494384 -0.0527037 -0.00371783 0.0411041 0.0159801 -0.032371 -0.0071939 0.0513517 0.0251659 -0.040241 
-0.0218348 0.0207028 -0.000484265 -0.00764662 0.0150195 -0.000353806 -0.0116042 -0.00386294 0.00791913 0.0168356 
-0.0275247 -0.000302163 0.0353944 -0.0412673 0.0179323 0.0112171 -0.0287116 0.0324823 -0.0283997 0.021982 
-0.0158701 0.0108073 -0.00689126 0.00407319 -0.00221763 0.00111004 -0.000511385 0.000217415 -8.55922e-05 3.13137e-05 
-1.06839e-05 3.41117e-06 -1.02253e-06 2.88681e-07 -7.69977e-08 1.94627e-08 -4.67715e-09 1.07232e-09 -2.35555e-10 4.99078e-11 
-1.03371e-11 2.15832e-12 -4.83829e-13 1.26972e-13 -4.04673e-14 1.4809e-14 -5.31666e-15 3.296e-15 4.32377e-15 2.08263e-14 
8.08038e-14 3.07084e-13 1.12275e-12 3.94154e-12 1.32347e-11 4.231e-11 1.28067e-10 3.64509e-10 9.67201e-10 2.36638e-09 
5.26223e-09 1.04323e-08 1.79466e-08 2.57312e-08 2.87187e-08 2.13211e-08 4.03954e-09 -7.88095e-09 3.26389e-08 9.79996e-08 
6.59201e-07 2.40055e-06 6.23267e-06 1.23727e-05 1.49674e-05 -1.00789e-05 -0.000128952 -0.000483702 -0.00131807 -0.00293852 
-0.00548887 -0.00837917 -0.00939734 -0.00422835 0.0119145 0.0392439 0.0677643 0.0798468 0.0669946 0.0465568 
0.0470777 0.0623864 0.0422302 -0.0303426 -0.0780239 -0.0317109 0.0315904 0.00327903 -0.0442553 0.00462425 
0.0556575 0.00530738 -0.034275 -0.00651919 0.00354028 0.0083319 0.0101415 -0.0128095 2.82533e-05 -0.001592 
0.00120618 0.0186617 -0.0341893 0.0208402 0.0110185 -0.0357173 0.042213 -0.0367362 0.0289459 -0.0231134 
0.018848 -0.0148455 0.0107688 -0.00705018 0.00415328 -0.00221077 0.00106997 -0.000473843 0.000193128 -7.2813e-05 
2.5506e-05 -8.33342e-06 2.54821e-06 -7.31503e-07 1.97697e-07 -5.04368e-08 1.21775e-08 -2.78883e-09 6.0666e-10 -1.25164e-10 
2.42355e-11 -4.2346e-12 5.71612e-13 -2.86365e-15 -4.2532e-14 2.43432e-14 -1.0575e-14 3.08493e-15 -4.62354e-15 -1.30405e-14 
-5.30494e-14 -2.00663e-13 -7.31677e-13 -2.55588e-12 -8.52115e-12 -2.6984e-11 -8.06942e-11 -2.26254e-10 -5.89491e-10 -1.41102e-09 
-3.0571e-09 -5.87639e-09 -9.74262e-09 -1.33423e-08 -1.39666e-08 -9.20074e-09 -9.47096e-10 6.37105e-10 -8.61392e-09 1.05171e-07 
2.2706e-07 -2.76996e-07 -2.68952e-06 -1.09981e-05 -3.24625e-05 -7.57529e-05 -0.000139224 -0.000178719 -4.16859e-05 0.000639873 
0.00257003 0.00678165 0.0141438 0.023935 0.0317464 0.0289866 0.00775947 -0.0289405 -0.0622102 -0.071515 
-0.0598631 -0.0505558 -0.0425167 0.0030903 0.0833176 0.103107 0.0121829 -0.0646701 -0.0180386 0.0318513 
-0.0211098 -0.0408222 0.0303037 0.0409129 -0.012871 -0.0288137 -0.00926375 0.0292138 0.00810078 -0.0303371 
0.0175432 -0.00491384 -0.00139405 0.015889 -0.0332012 0.0374131 -0.0275471 0.0160637 -0.0122029 0.01505 
-0.0187721 0.0193319 -0.0164352 0.0118779 -0.00748492 0.00419084 -0.00211393 0.000970582 -0.000408832 0.000158965 
-5.73387e-05 1.9264e-05 -6.04893e-06 1.78043e-06 -4.9251e-07 1.28346e-07 -3.15824e-08 7.35782e-09 -1.62914e-09 3.45291e-10 
-7.11394e-11 1.47168e-11 -3.23535e-12 8.05325e-13 -2.30885e-13 7.26037e-14 -2.32645e-14 7.84638e-15 -1.73852e-16 8.96585e-15 
3.26651e-14 1.24533e-13 4.52964e-13 1.57627e-12 5.22411e-12 1.64083e-11 4.85481e-11 1.34313e-10 3.44269e-10 8.07987e-10 
1.70997e-09 3.19635e-09 5.12325e-09 6.72112e-09 6.61614e-09 3.90035e-09 1.33045e-10 -1.30082e-09 -1.1296e-08 -6.76317e-08 
-3.38524e-07 -9.69209e-07 -1.95353e-06 -1.94884e-06 4.84316e-06 3.43426e-05 0.00011978 0.000314599 0.000679308 0.00123194 
0.00182423 0.00188378 2.40191e-05 -0.00612166 -0.0188222 -0.0368998 -0.0516285 -0.0480665 -0.0175544 0.0266948 
0.054381 0.049554 0.0272814 -0.000161002 -0.0470396 -0.0943577 -0.0607853 0.0541295 0.0939392 0.00110787 
-0.0448194 0.015621 0.0100165 -0.0450174 -0.00259505 0.0457189 0.0107508 -0.0366943 -0.0212098 0.0468965 
-0.00306766 -0.0363049 0.0363187 -0.0232179 0.0139177 -0.00206879 -0.0128721 0.01988 -0.0125749 -0.00341612 
0.0177749 -0.0243526 0.0232608 -0.017943 0.0118404 -0.00688988 0.00360127 -0.00171174 0.000746308 -0.000300378 
0.000112154 -3.8999e-05 1.26699e-05 -3.8562e-06 1.10211e-06 -2.96372e-07 7.51107e-08 -1.79563e-08 4.04707e-09 -8.56532e-10 