# vtk DataFile Version 2.0
Titre
ASCII
DATASET STRUCTURED_POINTS
DIMENSIONS 100 100 1
ORIGIN 0.0 0.0 0.0
SPACING 0.1 0.1 0.0
POINT_DATA 10000 
SCALARS rho float
LOOKUP_TABLE default
0.000812715 0.000441644 -0.000226617 -0.000330479 0.000182817 0.000210582 -0.000140023 0.000152539 0.000411982 5.83434e-06 
-0.000257775 2.54803e-05 0.000177557 8.31288e-05 -0.000236867 -0.00054316 -0.00044104 2.87228e-05 0.000423418 0.000417769 
0.000173695 5.97361e-05 1.17835e-05 -0.000181352 -0.000478794 -0.000697804 -0.00106524 -0.00183838 -0.00288181 -0.00395963 
-0.00491465 -0.0057671 -0.00659466 -0.0074404 -0.00817299 -0.00856056 -0.00838019 -0.00754581 -0.00609687 -0.00414481 
-0.00178019 0.0009899 0.00421216 0.00792626 0.012084 0.0164607 0.020632 0.0239931 0.0258223 0.0254307 
0.0223102 0.0163255 0.00786596 -0.00208653 -0.0119966 -0.0200125 -0.0243416 -0.0237584 -0.0180865 -0.00848685 
0.00261418 0.0120842 0.0170332 0.0159252 0.0093574 0.000113772 -0.00778029 -0.0107927 -0.00767232 -0.00036109 
0.0066852 0.00876849 0.00378135 -0.00612185 -0.0153204 -0.0179779 -0.0118712 -0.000284961 0.00976607 0.0121015 
0.00595762 -0.00331581 -0.00823671 -0.00528329 0.00232972 0.00757145 0.00599654 -0.000202114 -0.00474523 -0.00363393 
0.000754521 0.00321993 0.00134663 -0.00135892 -0.00171375 0.000327066 0.00112979 3.61889e-05 -0.000339579 -0.000281026 
6.65837e-05 -0.00161363 -0.000128394 -0.000195893 -0.000260377 0.000427382 0.000416076 0.000304593 -9.11908e-05 -0.000252749 
0.000185166 0.000136548 -0.00013465 -0.00031784 -0.000578651 -0.000199272 0.000778904 0.00136813 0.000942887 2.21634e-05 
-0.000454753 -0.000573384 -0.000909624 -0.00142264 -0.00167498 -0.00195862 -0.00286015 -0.00397431 -0.00476254 -0.00522566 
-0.00574599 -0.00671327 -0.00826461 -0.010211 -0.0122629 -0.0143083 -0.0165179 -0.0191877 -0.0224803 -0.0262768 
-0.030119 -0.0333486 -0.0352542 -0.035201 -0.032708 -0.0275279 -0.0196277 -0.00930458 0.00280184 0.0156417 
0.0277482 0.0373803 0.0427206 0.0422833 0.0353461 0.0223815 0.00530593 -0.0126359 -0.027422 -0.0352584 
-0.033809 -0.0232505 -0.00669263 0.0104702 0.0222571 0.0244492 0.0165863 0.00259733 -0.0106464 -0.0165044 
-0.012111 -0.000286123 0.0116532 0.0160149 0.0096396 -0.00360217 -0.0148555 -0.0161408 -0.00624409 0.00782214 
0.0156207 0.011311 -0.00134157 -0.0117604 -0.011394 -0.00134698 0.00871584 0.00959786 0.00167275 -0.00617361 
-0.00606416 0.000226236 0.00457645 0.00237182 -0.00187877 -0.002403 0.000461057 0.0016652 3.67169e-05 -0.000798382 
-0.000253321 0.000169223 0.00171536 -0.00018713 0.000891885 0.000782408 -0.000340068 -0.000405889 -0.000342179 0.000299291 
0.000341644 -0.000180487 -0.000174652 -0.000416588 -0.000394199 0.000426876 0.000720538 -0.000140775 -0.00130828 -0.00151376 
-0.00102912 -0.00101572 -0.00147647 -0.00158836 -0.00136047 -0.00169817 -0.00214433 -0.00173487 -0.00074166 0.000136549 
0.000557869 0.000728127 0.00111925 0.00206208 0.00339834 0.00458467 0.00498383 0.00425981 0.00240222 -0.000392215 
-0.00394373 -0.00820084 -0.0132058 -0.0189336 -0.0251892 -0.0314644 -0.0369468 -0.040642 -0.041468 -0.0385603 
-0.0314548 -0.020337 -0.00621745 0.00910419 0.0231612 0.0332901 0.03721 0.0337308 0.0233351 0.00836154 
-0.00733518 -0.019388 -0.0242968 -0.0207774 -0.0104808 0.00241681 0.012741 0.016538 0.0128872 0.00439174 
-0.00419509 -0.00859575 -0.00748375 -0.00320221 -4.45998e-05 -0.00105188 -0.00549254 -0.0091408 -0.00747841 0.0002359 
0.0095285 0.0135455 0.00870061 -0.0016838 -0.00937456 -0.00810279 0.000548217 0.0082831 0.00789922 0.000628497 
-0.00551236 -0.00445352 0.00106946 0.00385411 0.00108961 -0.00219536 -0.00180034 0.00061787 0.00157975 -0.000180422 
0.000409549 0.000937962 -0.000518863 -0.00132651 0.000437507 -0.00107991 -0.000745218 0.000326763 0.000624465 0.000627338 
-0.000255476 -0.000366685 -0.000406351 -0.000886319 -0.000159265 0.000552435 -1.76775e-06 -0.000827592 -0.0007063 0.00015329 
0.000306387 -0.000204952 -9.62782e-05 0.000977144 0.00181496 0.00230141 0.00383041 0.00603896 0.00780796 0.00899523 
0.0101419 0.0117592 0.0139048 0.0161312 0.0178523 0.0187098 0.0187828 0.0184843 0.0181298 0.0177535 
0.0170854 0.0157601 0.0134587 0.0100725 0.00563072 0.000376079 -0.00540596 -0.0113075 -0.0168347 -0.021444 
-0.0244886 -0.0254161 -0.0238164 -0.0196355 -0.0132937 -0.00569371 0.00186485 0.00799469 0.011595 0.0122093 
0.0102438 0.00680931 0.00332069 0.000837344 -0.000406165 -0.00109335 -0.00231032 -0.00468221 -0.00762533 -0.00935467 
-0.00783965 -0.00237638 0.0052976 0.0112987 0.011656 0.00506801 -0.00543593 -0.01363 -0.0137865 -0.00485949 
0.00801563 0.016411 0.0144668 0.00364544 -0.00788562 -0.0113908 -0.004839 0.00515947 0.00936595 0.00459162 
-0.00326666 -0.0059101 -0.00170359 0.00321379 0.00305101 -0.000469949 -0.00192659 -0.000972081 0.000610961 0.000551956 
0.000109462 -0.000884697 -0.00103862 0.000759192 0.00129395 -0.00013839 0.00137101 0.000885165 -2.93927e-05 -0.000579388 
-0.000762631 -0.000321147 -0.000957762 -0.000613021 0.000753375 0.000476716 -0.000480856 -0.000551227 0.000273614 0.000784302 
0.000662073 0.00123895 0.00298296 0.00463918 0.00527045 0.00645434 0.00853208 0.00992643 0.0106566 0.0116344 
0.0132952 0.0154204 0.017578 0.0195197 0.0213666 0.0233841 0.0258959 0.0288589 0.0318052 0.0341173 
0.035346 0.0352243 0.0336888 0.0307493 0.0263948 0.0206809 0.0136979 0.00581444 -0.00239235 -0.0100531 
-0.0161203 -0.0196246 -0.0198111 -0.0165483 -0.0104127 -0.00281158 0.00425214 0.00866134 0.00885053 0.00453166 
-0.0028959 -0.0105144 -0.0147503 -0.0128846 -0.00448561 0.00775717 0.0187406 0.0229787 0.0175103 0.00393153 
-0.0116352 -0.0213474 -0.0199421 -0.00820623 0.00689756 0.0161012 0.0137285 0.00181168 -0.010889 -0.0147115 
-0.00633341 0.00837863 0.0182218 0.0154659 0.0023057 -0.0103973 -0.0122336 -0.0026277 0.0085135 0.0105019 
0.00254291 -0.00574845 -0.00590989 0.000266384 0.00386216 0.00144662 -0.00116744 -0.00111399 0.00029226 -4.28323e-05 
-0.000597908 1.43984e-05 0.00120907 0.00146123 -0.00048563 -0.00110441 -0.000115786 -0.00144275 -0.000809858 -0.000126688 
9.59095e-05 -0.000505316 -0.000997163 0.000686509 0.00105928 -0.000167233 -0.000183536 0.000895801 0.00203438 0.00239102 
0.00272196 0.0038318 0.00497126 0.00484576 0.00442072 0.00518969 0.00542066 0.00452664 0.00378604 0.00345684 
0.00307028 0.002365 0.00154737 0.00104313 0.00110078 0.00183014 0.00329533 0.00531315 0.00785537 0.0111745 
0.0156078 0.0211433 0.0275429 0.0340506 0.0397146 0.0434712 0.0443277 0.0415976 0.0349418 0.0246614 
0.0116624 -0.00242986 -0.0154504 -0.0250513 -0.0291626 -0.0266861 -0.0179815 -0.00512957 0.00834092 0.0183629 
0.0216131 0.0168971 0.00592127 -0.00701378 -0.0165147 -0.018459 -0.0120247 -0.000450808 0.0103555 0.0147691 
0.0106205 0.00061534 -0.00907887 -0.0125085 -0.0077752 0.00167444 0.00919676 0.00969839 0.00321852 -0.00472049 
-0.00732294 -0.00171262 0.00809825 0.0139858 0.01024 -0.000964338 -0.0104356 -0.00990277 -0.000249047 0.00878384 
0.00822202 -6.27194e-05 -0.00611412 -0.00368775 0.00222319 0.00273972 -0.000302665 -0.001676 -0.00010647 0.000459214 
-0.000328659 0.000954653 0.000124286 -0.00117386 -0.00175861 0.000120517 0.00099715 0.000568196 0.00169454 0.000516799 
-0.000857341 -0.00147678 3.1772e-05 0.00159466 0.000337231 6.75274e-05 0.00130775 0.00223988 0.00240387 0.00175674 
0.00145478 0.00169764 0.00120939 -0.000515347 -0.00153185 -0.00244388 -0.00504267 -0.00788946 -0.0103866 -0.0132069 
-0.0163541 -0.0193111 -0.0217311 -0.0237099 -0.0255188 -0.0270399 -0.0281465 -0.0286956 -0.0283041 -0.0265847 
-0.0235532 -0.0193904 -0.0141772 -0.00815807 -0.00130274 0.00621735 0.0140918 0.0217268 0.0282053 0.0325301 
0.0336856 0.0311069 0.0247607 0.0154822 0.0048264 -0.00511935 -0.0122942 -0.0152699 -0.013814 -0.00905529 
-0.00319306 0.00138892 0.00310128 0.00197645 -0.000408005 -0.00174576 -0.000512452 0.00299258 0.00652177 0.00728109 
0.00382161 -0.00254396 -0.00826937 -0.00963977 -0.0055103 0.00179723 0.00765629 0.00847114 0.0039911 -0.00229082 
-0.00571937 -0.00355935 0.00294094 0.00910585 0.00993127 0.00382221 -0.00522585 -0.00976856 -0.00561617 0.00360328 
0.00856902 0.00452041 -0.00331495 -0.00575125 -0.000505573 0.00327684 0.00166142 -0.00116827 -0.000973885 0.0003786 
-6.02703e-06 0.000324812 -0.00103361 -0.000199144 0.00106982 0.0020581 0.000446876 -0.000606085 -0.000978917 -0.00263501 
-0.00180163 8.32325e-05 0.0019731 0.00123519 2.27133e-05 0.00120448 0.00163282 0.00128281 0.000355848 -0.000963646 
-0.00143724 -0.00192974 -0.00429608 -0.00730719 -0.00913718 -0.0119661 -0.0155707 -0.0183811 -0.0212443 -0.0242132 
-0.0266909 -0.0286884 -0.0307015 -0.0331548 -0.0358556 -0.0383573 -0.0406355 -0.0425481 -0.0439014 -0.0445919 
-0.0447535 -0.0439721 -0.0419137 -0.038307 -0.0328723 -0.0258935 -0.0177669 -0.00923122 -0.00115374 0.00560318 
0.0102421 0.0122926 0.0116576 0.00886878 0.00496062 0.00143502 -0.000258802 0.000833808 0.00455131 0.00946267 
0.0130885 0.0129241 0.0076005 -0.00188854 -0.012221 -0.0187155 -0.0177947 -0.00901699 0.0038638 0.0145476 
0.0173739 0.0109289 -0.000937825 -0.0110797 -0.0136973 -0.00789089 0.0018047 0.00891452 0.00950232 0.00451701 
-0.00158778 -0.00447554 -0.00255207 0.00231047 0.00620527 0.00558534 -0.000357932 -0.0073821 -0.00919106 -0.00309056 
0.00541005 0.0074928 0.00147246 -0.00550863 -0.00441374 0.00104195 0.002556 0.000166081 -0.00103926 4.13558e-05 
3.67629e-05 -0.000273226 -0.000247494 0.000979032 0.000278813 -0.000922476 -0.00202566 -0.000767477 2.41727e-05 0.000322971 
0.00197961 0.00200431 0.00119325 -0.000241056 0.000282755 0.000759901 -0.000384176 -0.000973342 -0.00257731 -0.00413705 
-0.00468449 -0.00656803 -0.0101031 -0.0117507 -0.0121437 -0.0138263 -0.0148317 -0.01506 -0.0151742 -0.014465 
-0.0132824 -0.0123464 -0.011963 -0.0119463 -0.0119168 -0.0121831 -0.0132046 -0.0150597 -0.0177247 -0.0212139 
-0.0253969 -0.0295139 -0.0333745 -0.0363627 -0.0379772 -0.0378418 -0.0353638 -0.0304141 -0.0230867 -0.0140956 
-0.00466601 0.00354472 0.00889183 0.0101166 0.00698068 0.000499562 -0.00704887 -0.0126663 -0.0137004 -0.00891616 
0.00053979 0.0113113 0.0188188 0.0194241 0.0122433 0.000160438 -0.0113603 -0.0168523 -0.0139765 -0.00490664 
0.00481529 0.00977799 0.00804239 0.00214774 -0.00309121 -0.0044193 -0.0021378 0.00074617 0.00188479 0.00131143 
0.000729188 0.000812667 0.000679056 -0.000181938 -0.000902697 -0.000157854 0.000413392 -0.00169931 -0.00564389 -0.00654057 
-0.00135732 0.00485919 0.00534146 -0.000923162 -0.00490551 -0.00185729 0.00185594 0.0011426 -0.000698825 -0.000259121 
8.52583e-05 -0.000172192 0.000447812 0.000118442 -0.000914941 -0.00010821 0.00131494 0.00231831 0.00073769 -0.000650788 
-0.000950291 -0.00150214 -0.000699179 -0.00018654 4.05086e-05 -0.00136053 -0.00191318 -0.00247987 -0.00497814 -0.0055916 
-0.00549248 -0.00732904 -0.0080694 -0.00553237 -0.00389891 -0.00298362 -0.000179864 0.00331189 0.00760781 0.0124054 
0.0166766 0.0204881 0.0239898 0.0272775 0.0299985 0.0314786 0.0317586 0.0309332 0.0291147 0.0260172 
0.0218533 0.0168355 0.0106718 0.003983 -0.00300926 -0.00964253 -0.0151361 -0.0189716 -0.0204813 -0.0194786 
-0.0160168 -0.0107598 -0.0047649 0.000420106 0.00345905 0.00335414 0.000298564 -0.00446048 -0.00868052 -0.0101084 
-0.00749309 -0.00146783 0.00545662 0.00991846 0.00956827 0.00452004 -0.00226632 -0.00672195 -0.00611296 -0.00127205 
0.00394247 0.00514422 0.00128841 -0.00449577 -0.0067648 -0.002984 0.0041869 0.00837981 0.00566523 -0.00151914 
-0.00623206 -0.00392367 0.00218053 0.00512255 0.00147747 -0.00412561 -0.00547675 -0.00306558 -0.0017702 -0.00368677 
-0.0040865 -0.000472474 0.00356507 0.00185613 -0.00325405 -0.0038017 0.000117663 0.00162493 -7.9485e-05 -0.000370652 
0.000316673 -9.45602e-05 0.000282362 -0.000669779 0.00021197 0.00147045 0.000755889 -0.00146315 -0.00332781 -0.0021968 
0.000174894 0.00183025 0.00234493 0.000139234 -0.00178859 -0.00230743 -0.00160563 -0.00373631 -0.00515685 -0.00268669 
-0.00161721 -0.00151346 0.00220777 0.00701978 0.0096768 0.0141063 0.020222 0.0260827 0.0319063 0.0366267 
0.0406261 0.0444226 0.0476533 0.0502737 0.0519414 0.0528461 0.0533535 0.0533229 0.0526586 0.0508255 
0.0483251 0.0447238 0.0399098 0.0343858 0.0279376 0.0211437 0.0142941 0.00794741 0.00286483 -0.000389125 
-0.00138054 -0.000231808 0.00234371 0.00501153 0.00627278 0.00471901 0.000107413 -0.00671972 -0.0132559 -0.0166777 
-0.0145817 -0.00693829 0.00374424 0.0126691 0.0153984 0.0100743 -0.000546564 -0.0104945 -0.0135004 -0.00767658 
0.00322504 0.0112699 0.0106133 0.00158469 -0.00835435 -0.0108266 -0.00344729 0.00731679 0.0114497 0.00511183 
-0.005619 -0.00968635 -0.00356678 0.00529625 0.00653659 -0.0012141 -0.00779803 -0.00646523 -0.000842579 0.000581152 
-0.00236272 -0.00316574 0.000785195 0.00316255 -0.000283726 -0.00417891 -0.0023853 0.000999042 0.000654412 -0.000327393 
0.000359495 -0.000308991 6.53107e-05 -0.000247597 0.00146625 0.00052402 -0.00124564 -0.00162344 0.000235712 0.00252449 
0.00264707 0.000499644 -0.00249524 -0.00465053 -0.00298068 -0.000834157 -0.0013084 -0.00326553 0.000130851 0.00450499 
0.00527266 0.0082027 0.0143279 0.0182155 0.0213793 0.0265247 0.0302353 0.0325605 0.0337189 0.0335642 
0.0334427 0.0326051 0.0310622 0.029432 0.0277819 0.0267489 0.0260903 0.0258601 0.0259641 0.026268 
0.0272833 0.0277808 0.0279961 0.0275478 0.0257451 0.0227969 0.0184492 0.0133231 0.00806374 0.00371611 
0.00123104 0.00146564 0.00446395 0.00959436 0.0150721 0.0185653 0.0179066 0.0119101 0.00170873 -0.00978002 
-0.0179704 -0.0193751 -0.0128393 -0.00138217 0.00942446 0.0137547 0.00951409 -0.000383012 -0.00897124 -0.0102036 
-0.00294393 0.00716984 0.0119134 0.00675722 -0.0046984 -0.0126342 -0.00957669 0.00294304 0.0135969 0.0122208 
-0.000773278 -0.0126459 -0.011048 0.00159281 0.0112638 0.00607152 -0.00663036 -0.0112153 -0.00377395 0.00425232 
0.00290972 -0.00328002 -0.00348099 0.00119875 0.0023861 -0.00186883 -0.00391944 -0.00094748 0.00081155 -0.00010691 
0.000160944 -0.000395465 0.000366256 0.000445061 0.00122221 -0.00109071 -0.000947387 7.55389e-05 0.000468163 -0.00105257 
-0.00280581 -0.0035062 -0.0025054 1.68008e-05 0.00294366 0.0021706 0.000185588 0.00219098 0.00812573 0.00961119 
0.0102441 0.0150059 0.0185871 0.0186061 0.0192745 0.018851 0.0157041 0.011931 0.00659214 0.000986161 
-0.00459131 -0.0110314 -0.0164905 -0.0208573 -0.0241347 -0.0260044 -0.0269397 -0.0261996 -0.0244393 -0.021438 
-0.0175661 -0.0139826 -0.00979388 -0.00611946 -0.00311996 -0.000897291 -3.60467e-05 -0.000383089 -0.00202074 -0.00431256 
-0.00656988 -0.00746031 -0.00618201 -0.00193607 0.00453199 0.0118157 0.0172113 0.0183428 0.0139373 0.00500258 
-0.00501994 -0.0117049 -0.0116209 -0.00479769 0.00484415 0.0111575 0.00952496 0.00029194 -0.0107011 -0.0153154 
-0.00917998 0.00477574 0.0166172 0.0171741 0.00448636 -0.0119852 -0.0192682 -0.0101951 0.00780647 0.0185815 
0.0117031 -0.00708715 -0.0179963 -0.0104692 0.00743035 0.014403 0.0026872 -0.010898 -0.00944585 0.00306331 
0.00950512 0.00268 -0.0040295 -0.00212536 0.00233197 0.00105724 -0.00313122 -0.00281119 -5.18861e-06 2.94751e-05 
-5.35398e-06 -0.000125788 0.000705007 0.000468963 0.000263108 -0.00129024 0.000335411 -0.000332113 -0.00154604 -0.0015894 
0.000636161 0.00222168 0.00250659 0.00202273 0.00118341 -0.000133107 0.00201101 0.00709785 0.00988595 0.00871806 
0.0105975 0.0123011 0.00920129 0.00477035 0.000241524 -0.00722203 -0.0151116 -0.023522 -0.0329329 -0.0405919 
-0.0479211 -0.0538361 -0.0569042 -0.0589749 -0.0593656 -0.0583738 -0.0560782 -0.0521723 -0.0481582 -0.0431565 
-0.0383108 -0.0333468 -0.027605 -0.022584 -0.0176631 -0.0136572 -0.0110038 -0.00998433 -0.0107912 -0.0131729 
-0.0163986 -0.0191024 -0.0199249 -0.0171515 -0.0106078 -0.000735734 0.00951047 0.0170236 0.0181812 0.0122016 
0.000853536 -0.0104894 -0.016164 -0.0123703 -0.000780875 0.0124248 0.0187906 0.0138068 -0.000622086 -0.015229 
-0.020482 -0.0116794 0.00521718 0.0187023 0.0180938 0.00374294 -0.0134268 -0.019166 -0.00778899 0.00999132 
0.0180211 0.00665913 -0.0116855 -0.0175162 -0.00425787 0.0129359 0.0114454 -0.00489411 -0.0126943 -0.00302117 
0.0108283 0.00927751 -0.0013086 -0.00421459 0.00102293 0.00328502 -0.000789827 -0.00345891 -0.00123587 -0.000143808 
0.000127109 0.000241629 0.000642219 0.000175175 -0.000174419 -0.000572267 0.000212218 -0.00204065 -0.00144822 0.000965021 
0.00204199 -0.000488677 -0.00230828 -0.00109147 0.00201875 0.00477997 0.00759735 0.00845319 0.00673971 0.00495297 
0.00358694 -0.00236675 -0.00992718 -0.0168682 -0.025777 -0.034909 -0.0420421 -0.0498585 -0.0549742 -0.0567116 
-0.0577073 -0.0553479 -0.051652 -0.0479468 -0.0425211 -0.0371364 -0.0313147 -0.0260668 -0.0219732 -0.0175416 
-0.0143164 -0.0106225 -0.00720172 -0.00449213 -0.00141768 0.00093246 0.00287683 0.00367927 0.0030624 0.000174645 
-0.00473376 -0.0114313 -0.0182275 -0.0229324 -0.0234696 -0.0181755 -0.00815756 0.00420985 0.013804 0.0169916 
0.0114759 0.000187664 -0.0115427 -0.0166007 -0.012014 0.00047919 0.0131143 0.0183374 0.0119996 -0.00172119 
-0.0142654 -0.0169113 -0.00807754 0.00602472 0.0151409 0.0120177 -0.000530446 -0.0133325 -0.0139215 -0.00219009 
0.0122657 0.0136091 -0.0010784 -0.0151817 -0.0132899 0.00505302 0.0160344 0.00422305 -0.0109662 -0.00955677 
0.00715603 0.0144683 0.00389908 -0.00535635 -0.00181032 0.00421862 0.00245932 -0.0024281 -0.00211706 -0.000611986 
0.00062571 0.000325919 0.000348224 9.54855e-05 -0.000181407 -0.00031558 -0.000978248 -0.00212444 0.000886547 0.00221494 
0.000209145 -0.00149182 0.00179258 0.00651955 0.00783265 0.00513824 0.00217482 7.94712e-05 -0.0018868 -0.00576618 
-0.0127596 -0.0205368 -0.0260757 -0.0330929 -0.0399417 -0.0420569 -0.0428959 -0.042481 -0.0362544 -0.0292608 
-0.0217101 -0.0118354 -0.00410984 0.00362304 0.0110492 0.0157951 0.0196872 0.021122 0.0219213 0.0224094 
0.0215444 0.0214958 0.0205066 0.0201376 0.0204446 0.02089 0.0220431 0.0229637 0.0233826 0.0217724 
0.0179843 0.0108427 0.00176835 -0.00817087 -0.0158326 -0.0186954 -0.0152084 -0.00605518 0.00498053 0.0131406 
0.0138287 0.00651943 -0.00549617 -0.0152052 -0.0169482 -0.00894561 0.00405192 0.0143183 0.0155879 0.0073395 
-0.00431511 -0.0121213 -0.0108634 -0.00301199 0.00666997 0.0103441 0.00686741 -0.00293634 -0.0104071 -0.00892802 
0.00150405 0.0122863 0.00848757 -0.00526534 -0.0146345 -0.00626155 0.0121429 0.0116781 -0.00441557 -0.0130456 
-0.00124432 0.0137976 0.0095605 -0.00410773 -0.00549688 0.00274035 0.00509269 -0.00012087 -0.00195636 -0.0010685 
0.00125237 6.08277e-05 0.000181704 0.000284939 -0.000277464 -0.000575204 -0.00158726 -0.000503252 0.00215711 0.000813202 
-0.000981357 0.000996416 0.00459834 0.00379721 -0.00105804 -0.00498103 -0.00487753 -0.00434465 -0.00813507 -0.0160456 
-0.0225577 -0.0249055 -0.0275298 -0.0308014 -0.0271678 -0.0192492 -0.0125587 -0.00122508 0.012944 0.0233242 
0.0344857 0.0435975 0.0480506 0.0520271 0.0516749 0.0484279 0.0445474 0.0385508 0.0336799 0.0280536 
0.0229075 0.0191997 0.0154089 0.0137975 0.0126453 0.012993 0.0146838 0.0176133 0.0212921 0.0244726 
0.0262379 0.0243312 0.0189193 0.00918503 -0.00159857 -0.0110887 -0.0147672 -0.0115006 -0.00184732 0.00918258 
0.0162538 0.0147722 0.00550373 -0.00688984 -0.0148589 -0.0143247 -0.00562313 0.00436166 0.0101614 0.00793093 
0.00220452 -0.0033827 -0.00410669 -0.00288152 -0.000526262 0.00057751 0.00219386 0.0031628 0.000414537 -0.00319151 
-0.00508728 0.0020383 0.00778096 0.00364383 -0.0057888 -0.0101588 0.00379794 0.0135212 0.00364941 -0.0102797 
-0.00743588 0.00854308 0.0122134 -0.00151144 -0.00909111 -0.00126261 0.00598857 0.00239656 -0.00103403 -0.00111641 
0.00181922 -0.000452657 0.000344261 0.00043378 -0.000632755 -0.000776965 -0.00125729 0.00100046 0.00155179 -0.000197058 
0.000429435 0.00285513 0.0022216 -0.00135928 -0.00362976 -0.00317623 -0.00304279 -0.00761953 -0.0160083 -0.0213777 
-0.0198945 -0.0167241 -0.0151343 -0.00723197 0.00790157 0.0201644 0.031938 0.0479191 0.0582173 0.063444 
0.0680043 0.0651504 0.0590472 0.0516293 0.0394335 0.0286263 0.0178082 0.00720789 -0.000617834 -0.00839306 
-0.0129456 -0.0164424 -0.0186382 -0.0188825 -0.0191221 -0.0172302 -0.0146788 -0.00995905 -0.00412358 0.00330321 
0.0106601 0.0163022 0.0185953 0.0153709 0.00811042 -0.00220614 -0.0100633 -0.0131654 -0.00839869 0.000712306 
0.0104357 0.0139584 0.0103025 0.000806433 -0.00689377 -0.00900503 -0.00344986 0.00277065 0.00538909 0.000571359 
-0.00494474 -0.00605897 0.000515116 0.00772994 0.00766639 -1.73376e-05 -0.00837261 -0.00580786 0.0015049 0.00679462 
0.00140339 -0.00371185 0.00048313 0.00326252 0.00207494 -0.00658841 -0.0036744 0.00938347 0.00878856 -0.00495934 
-0.00975949 0.00261502 0.0122785 0.00235087 -0.0107883 -0.00725989 0.00385804 0.00417231 -4.75731e-06 -0.000759147 
0.00212664 -0.0010146 0.000789928 0.000319936 -0.000981748 -0.000573165 -0.000598412 0.00150372 0.00050556 0.000172076 
0.00112403 0.00065751 -0.00211803 -0.00342352 -0.00412178 -0.00673316 -0.0112711 -0.0158036 -0.0166889 -0.0111999 
-0.00283894 0.00380836 0.0135016 0.0306076 0.0451767 0.0534641 0.0637385 0.070277 0.06613 0.0605611 
0.0510395 0.0350539 0.0216308 0.00679765 -0.00783358 -0.0175512 -0.027537 -0.03376 -0.0374816 -0.0401804 
-0.0397055 -0.0400218 -0.0382254 -0.0367188 -0.0352571 -0.033127 -0.0318408 -0.0288028 -0.0252629 -0.018579 
-0.0108326 -0.00148571 0.00598288 0.00973484 0.00811629 0.00137415 -0.00654092 -0.0122083 -0.0109299 -0.0039661 
0.00592299 0.0113123 0.00950658 0.000468046 -0.0078122 -0.00951008 -0.00127346 0.00949414 0.0140623 0.00611601 
-0.00876978 -0.0174968 -0.0118376 0.00600501 0.0171699 0.0130361 -0.00592138 -0.0157677 -0.00840343 0.0076867 
0.0125746 -0.000555292 -0.00601789 -0.00297014 0.00450826 0.00173095 -0.00512735 0.00190084 0.00924297 0.000863269 
-0.00872905 -0.00223601 0.0100013 0.00603378 -0.00890915 -0.0117147 -0.000666981 0.00416661 0.000128294 -0.000355908 
0.00222355 -0.00145048 0.00137634 -8.17064e-05 -0.00106272 -0.000189266 -0.000252407 0.00126352 -5.2005e-05 0.000519629 
-0.000406677 -0.00224003 -0.00302832 -0.00274393 -0.00607048 -0.00983583 -0.00900422 -0.00432359 0.00206462 0.00986171 
0.017974 0.027397 0.0410594 0.0533136 0.0568481 0.0578681 0.0573995 0.04598 0.0300425 0.016358 
-0.0021404 -0.0178862 -0.027161 -0.0367436 -0.0396936 -0.0390749 -0.038081 -0.0324266 -0.0284866 -0.0239138 
-0.0198375 -0.0176439 -0.0139521 -0.0131375 -0.0117686 -0.0124702 -0.0141326 -0.0156239 -0.0173413 -0.0162361 
-0.0136636 -0.00692854 -0.000354126 0.00593429 0.00694319 0.00335241 -0.00454619 -0.0113862 -0.0131311 -0.00713791 
0.00339127 0.0119445 0.011675 0.001739 -0.0120181 -0.0183701 -0.0115805 0.00629205 0.0207689 0.0212987 
0.00292971 -0.0174438 -0.0257315 -0.00925529 0.0140132 0.0251915 0.00947931 -0.0159157 -0.0213773 -0.00426872 
0.0183217 0.0115147 -0.00566858 -0.011179 -0.00167251 0.00659558 -7.22098e-05 -0.00372125 0.00438403 0.00422203 
-0.00583972 -0.00548061 0.0065823 0.00827231 -0.00514488 -0.0126317 -0.00466881 0.00365617 -0.000902966 -0.000778837 
0.00237857 -0.00167879 0.00192228 -0.000653121 -0.000828672 4.34876e-06 -0.000288285 0.000887312 -0.000230631 -0.000125732 
-0.00255457 -0.00292477 -0.00198639 -0.00362507 -0.00787071 -0.00568863 0.00233293 0.00832079 0.0123093 0.0194907 
0.0300511 0.0406719 0.0477281 0.046694 0.0398582 0.0311667 0.0150138 -0.00667879 -0.0223709 -0.0359896 
-0.0477188 -0.0473724 -0.0427633 -0.0350888 -0.0197767 -0.00696579 0.00642548 0.0184292 0.0240552 0.0294556 
0.0298958 0.0295629 0.0284624 0.0247768 0.0230569 0.0183682 0.0150353 0.00983018 0.0046642 0.000130846 
-0.00246714 -0.000650955 0.00274823 0.00860271 0.0101349 0.00824241 -0.000709047 -0.00953307 -0.0155576 -0.0109639 
0.000640817 0.0153768 0.0205134 0.0135282 -0.00605265 -0.0223518 -0.0268467 -0.0106416 0.0118311 0.0287559 
0.0216402 -0.000728401 -0.0247798 -0.026155 -0.00414842 0.0212979 0.0264896 0.000208013 -0.0223009 -0.0207472 
0.00881846 0.0218132 0.0039077 -0.0132896 -0.00961588 0.00525337 0.00681662 -0.00342537 -0.00223806 0.00376438 
-0.00190499 -0.00697253 0.00189916 0.00843189 -0.00141221 -0.0108327 -0.0070943 0.00453115 -0.0011195 -0.00227541 
0.00279592 -0.00175764 0.00230648 -0.00125465 -0.000429856 -0.000173562 -0.000397568 0.000649815 -0.00049681 -0.00143007 
-0.00344305 -0.00159476 -0.00105606 -0.00379012 -0.00337538 0.00532993 0.0130049 0.0151837 0.0202716 0.0310601 
0.0393693 0.0387563 0.0302802 0.016922 0.00125567 -0.0185428 -0.0408303 -0.0551074 -0.0603014 -0.0622759 
-0.0521863 -0.0322108 -0.0135365 0.0100702 0.0324132 0.0468132 0.0603439 0.0647097 0.064369 0.0622904 
0.0537131 0.0471789 0.0380573 0.0309257 0.0263264 0.0209722 0.0191596 0.0143172 0.0108403 0.00524214 
0.00246056 0.00190313 0.0051407 0.0113933 0.015448 0.0157515 0.00665849 -0.00581147 -0.0189273 -0.0206977 
-0.0117865 0.00806151 0.0232443 0.0277911 0.0129945 -0.00805639 -0.0263888 -0.0249819 -0.00895057 0.014416 
0.025392 0.0172536 -0.00409388 -0.0231776 -0.0182788 0.00160657 0.0246354 0.0167921 -0.0088366 -0.0253908 
-0.00821776 0.02061 0.0158306 -0.00947362 -0.0161172 -0.000590768 0.0107514 0.00208529 -0.00577386 -0.000300462 
0.00112599 -0.00518996 -0.00222681 0.00631511 0.000564575 -0.00795742 -0.00885171 0.00617877 0.00156848 -0.00352718 
0.00323008 -0.00180044 0.00249136 -0.00177501 -2.79361e-05 -0.000613074 -0.000308365 0.000435541 -0.000974351 -0.00236076 
-0.00245255 0.000434883 -7.7808e-05 -0.000947397 0.00457233 0.0131255 0.0159577 0.0176764 0.0247067 0.0289726 
0.0216823 0.00582905 -0.0111611 -0.0282659 -0.0474132 -0.0661713 -0.0748476 -0.0709536 -0.062012 -0.0452043 
-0.0169739 0.00778571 0.0287942 0.0501139 0.0591898 0.0628651 0.0633988 0.0542295 0.0474158 0.0365864 
0.0240677 0.0156758 0.00477837 0.000174741 -0.00455963 -0.00627115 -0.0052274 -0.00601017 -0.00508081 -0.00829001 
-0.00842913 -0.00938003 -0.00371518 0.00432774 0.0150176 0.0209908 0.0179211 0.00520004 -0.0126316 -0.0246868 
-0.0247673 -0.00979971 0.00980771 0.0242867 0.0230551 0.00950178 -0.00815816 -0.0181039 -0.0149876 -0.0043312 
0.00969955 0.0130034 0.0102551 -0.00577222 -0.0131704 -0.0112736 0.00756837 0.0193572 0.00632223 -0.0158983 
-0.0192135 0.00821306 0.0233372 0.000993194 -0.0180496 -0.00764113 0.010178 0.00779963 -0.00461928 -0.00431481 
0.00152168 -0.00153715 -0.00366706 0.00391021 0.000628571 -0.00504068 -0.0104648 0.00592762 0.00625895 -0.00264978 
0.00316779 -0.00180788 0.00251852 -0.00216553 0.000255447 -0.00111066 4.00148e-05 0.000160295 -0.00128127 -0.00222786 
-0.000306162 0.00219668 0.00170522 0.00380569 0.0104285 0.0146756 0.0150362 0.0170232 0.0171565 0.00677886 
-0.0111053 -0.028303 -0.0432436 -0.0592366 -0.0738592 -0.0779515 -0.0675739 -0.0514139 -0.0323653 -0.00539181 
0.0184341 0.0291264 0.0370641 0.0360004 0.0232065 0.0140896 0.00105966 -0.0111759 -0.0148457 -0.0221143 
-0.0230126 -0.0234548 -0.0256444 -0.0234983 -0.0258956 -0.0226071 -0.0207615 -0.0175274 -0.0155537 -0.0172876 
-0.018078 -0.0214062 -0.017007 -0.0103014 0.00545931 0.0173284 0.0248094 0.0175505 0.00280466 -0.0155939 
-0.0234741 -0.0198928 -0.00463156 0.00777236 0.0139317 0.00775908 0.00241763 -0.00335386 4.69327e-05 -0.00238139 
-0.00111054 -0.0048519 0.00196855 0.00464271 0.00254217 -0.00477256 -0.00715222 0.00673217 0.0109819 -0.00178304 
-0.0163842 -0.0061919 0.0192003 0.0120489 -0.0144923 -0.0139783 0.00739059 0.0119336 -0.00178751 -0.00672119 
0.000166366 0.00184557 -0.0028976 0.00303396 0.000126643 -0.00252384 -0.0107547 0.00305856 0.00924682 0.000603223 
0.00237583 -0.00168879 0.00242417 -0.00242242 0.000399746 -0.0014414 0.000577658 -0.000131031 -0.00111327 -0.00119927 
0.00193554 0.00352589 0.0040413 0.00721869 0.0109212 0.0111085 0.0101862 0.00677918 -0.00485525 -0.0222307 
-0.03768 -0.0512243 -0.0652102 -0.0758992 -0.0754799 -0.0603805 -0.0383296 -0.0177576 0.00386624 0.0216094 
0.0213076 0.00972093 -0.00517993 -0.0313187 -0.0538537 -0.0656617 -0.0765575 -0.0722229 -0.0608512 -0.0497245 
-0.0312128 -0.0208339 -0.0109129 -0.0051593 -0.00548997 -0.00185372 -0.00341737 -0.000170508 -0.00209431 -0.00414889 
-0.0100149 -0.018026 -0.0215332 -0.0212041 -0.00800866 0.00521867 0.0203185 0.0204839 0.0140909 -0.00253622 
-0.00986828 -0.011842 -0.000601484 0.0034397 0.00428584 -0.00824569 -0.0106619 -0.00735365 0.0109898 0.0170397 
0.0103497 -0.00988003 -0.0189145 -0.00532142 0.00903278 0.0131989 -0.00378116 -0.00796004 0.00327568 0.0053432 
-0.00515222 -0.0111705 0.00755622 0.0172355 -0.00555035 -0.0180598 0.00164619 0.0148219 0.00203493 -0.00817215 
-0.00218319 0.0043276 -0.00173771 0.00288106 0.000514897 -0.000425701 -0.00909131 0.000208867 0.00821354 0.00426936 
0.00113445 -0.00137534 0.00222158 -0.00256475 0.000434847 -0.00148749 0.00115809 -0.000310144 -0.000448402 0.000133339 
0.00354177 0.00431976 0.00554786 0.00704733 0.00678001 0.0047089 0.000615419 -0.0110573 -0.027864 -0.040871 
-0.0511159 -0.0625447 -0.0683447 -0.0601346 -0.039446 -0.013551 0.00844331 0.0240281 0.0318185 0.0217001 
-0.00605009 -0.0356658 -0.0674337 -0.0977442 -0.1088 -0.109705 -0.100714 -0.0736023 -0.048623 -0.0206579 
0.00578846 0.0202166 0.0345718 0.0357405 0.0341291 0.0311372 0.0247774 0.0250829 0.0195486 0.018711 
0.00884076 -0.000840398 -0.0133703 -0.0190388 -0.0146495 -0.00426978 0.00971957 0.0129119 0.00927758 -0.00460812 
-0.00902393 -0.00598414 0.0113683 0.0196779 0.0171146 -0.0063836 -0.0255189 -0.0286218 -0.00514496 0.0245171 
0.0306145 0.0101529 -0.0250752 -0.0249389 -0.00216508 0.0226871 0.0142487 -0.0115257 -0.00982006 0.00321625 
0.00469329 -0.00589605 -0.00256385 0.0127167 0.00353439 -0.0160663 -0.0056467 0.0143855 0.00684748 -0.00819018 
-0.0057817 0.00583833 0.000138452 0.00170967 0.000913234 0.0013103 -0.0065697 0.000284528 0.0047119 0.00606496 
-4.01154e-05 -0.000911423 0.00192383 -0.00258002 0.000435368 -0.00121983 0.00163614 -0.000311319 0.000392519 0.00114301 
0.00421561 0.0043787 0.00505414 0.00323457 4.67445e-05 -0.00363373 -0.0124828 -0.0283522 -0.0406417 -0.0457487 
-0.051963 -0.0539159 -0.0396281 -0.0129662 0.0129253 0.0333739 0.0452296 0.0454039 0.0290276 -0.00371482 
-0.039545 -0.0694092 -0.0951587 -0.103994 -0.0937954 -0.0789972 -0.0518936 -0.0214859 -0.000783812 0.0232956 