# vtk DataFile Version 2.0
Titre
ASCII
DATASET STRUCTURED_POINTS
DIMENSIONS 100 100 1
ORIGIN 0.0 0.0 0.0
SPACING 0.1 0.1 0.0
POINT_DATA 10000 
SCALARS rho float
LOOKUP_TABLE default
-0.00298415 0.00010563 0.000833032 0.000101847 -0.000254008 -0.00236957 0.00447467 0.00608628 -0.000152438 -0.00708351 
-0.00284673 0.00322675 0.00410163 -0.00149249 -0.00321799 -0.000114785 0.00360615 0.001966 -0.00236702 -0.00411352 
-0.000699212 0.00323343 0.00349509 0.000376027 -0.00210044 -0.0023216 -0.000646491 0.00136636 0.00224989 0.00112867 
-0.000761682 -0.00186198 -0.00175078 -0.000732382 0.000584747 0.00138039 0.001323 0.000780286 9.55797e-05 -0.000470375 
-0.000584939 -0.00047134 -0.000228991 4.30913e-05 0.000160593 0.000198983 0.000163997 7.71016e-05 2.78075e-05 -1.34294e-05 
-2.68113e-05 -5.63795e-06 -1.01248e-05 2.32112e-05 1.16666e-05 1.60684e-05 2.31838e-05 -1.07774e-05 2.94188e-05 -3.28147e-06 
3.91534e-05 3.89181e-05 4.71592e-05 7.60796e-05 4.6543e-05 8.72791e-05 1.21445e-05 4.52322e-05 -4.36966e-05 -3.80232e-05 
-7.83172e-05 -0.000102824 -6.60319e-05 -7.58746e-05 4.2655e-06 1.92338e-05 8.47916e-05 9.02169e-05 9.4188e-05 5.98654e-05 
9.09461e-06 -4.81205e-05 -0.000136062 -0.000240578 -0.000353297 -0.000397794 -0.000267548 7.32138e-05 0.00059338 0.000986122 
0.00102757 0.000616871 0.00012129 -0.000510788 -0.000834105 0.000251557 -0.000186733 -0.000980487 -0.0011125 -0.0075649 
-0.00203931 0.00265931 -0.000986617 0.00218958 0.000673491 0.0021252 0.00155887 -0.00222252 -0.00548992 -0.00218373 
0.00186468 0.00338733 0.000872491 -0.00187388 -0.00125448 0.000732764 0.00164054 -0.0005636 -0.00180277 -0.000348554 
0.00199852 0.00138776 -0.00036288 -0.000783592 -0.000113484 -0.000199477 -0.000161578 0.000238803 7.64979e-05 -0.000380517 
-0.000159127 0.000218863 0.000251896 0.000363492 0.000400584 6.97316e-05 -0.000102261 -0.000164181 -0.000275327 -0.000237264 
-0.000112331 -0.000116304 -6.2238e-05 2.07963e-05 -5.57545e-05 5.15373e-05 4.01969e-05 1.73195e-05 0.00011964 2.7953e-05 
9.94827e-05 8.70149e-05 3.47066e-05 0.00010768 5.65297e-06 5.40245e-05 3.79319e-06 -2.28488e-05 -1.35807e-05 -8.51443e-05 
-3.38222e-05 -0.000117707 -3.71935e-05 -8.98866e-05 -2.19973e-05 9.31797e-06 1.72976e-05 0.000111572 6.34958e-05 0.000138033 
4.84701e-05 5.87735e-05 -4.799e-05 -6.92584e-05 -0.000131019 -0.000116591 -9.11687e-05 -2.36267e-05 4.04801e-05 9.02408e-05 
0.000111264 0.000105174 9.44609e-05 5.5763e-05 -1.3413e-06 -0.00017668 -0.000380882 -0.000607344 -0.000448291 2.59932e-05 
0.000724155 0.00097197 0.000978444 0.000877914 -0.000872827 -0.000970897 0.00226215 -0.00065227 0.00666107 -0.000111648 
0.000992927 0.00072816 -0.000209983 0.00145514 0.000406054 0.00119457 0.000820728 -0.000496063 0.000876788 0.00215389 
0.000732974 -0.000510134 -0.00263008 -0.000773649 0.00105312 0.00193888 -0.000452968 -0.00165372 -0.000231188 0.00193013 
0.000834719 -0.000934312 -0.000772234 0.000387787 -0.000106087 -0.000354428 0.000416421 0.000615523 -0.000145408 -0.000125163 
7.9404e-05 -0.000288206 -0.000376931 -8.33969e-05 -0.000156373 -0.000143284 0.00012355 0.000137441 9.0849e-05 0.000296973 
0.000172293 0.00012694 0.000185757 2.17384e-05 3.97493e-05 2.85268e-05 -9.47209e-05 -4.19889e-05 -0.000111332 -0.000144075 
-7.85327e-05 -0.000169472 -6.6653e-05 -9.67971e-05 -7.29187e-05 2.70034e-05 -5.24469e-05 0.000117321 3.40209e-05 0.000117925 
0.000135871 6.28661e-05 0.000157693 -3.58926e-06 7.5569e-05 -7.24477e-05 -3.76212e-05 -0.000113368 -0.000100141 -8.95311e-05 
-5.84886e-05 -1.34521e-05 2.11556e-05 4.25958e-05 2.76959e-05 1.1752e-05 -3.9484e-05 -4.23468e-05 -5.03061e-05 4.19252e-06 
2.99428e-05 4.87295e-05 -4.43866e-06 -0.000116106 -0.000195778 -0.000248426 -0.000143338 -0.000123477 -5.24273e-05 0.000181767 
0.000649055 0.000853658 0.000243187 0.00109668 0.000357403 -0.00325584 -0.000107195 -0.00574429 -0.000528008 0.000497195 
-0.00199271 -0.000301619 -0.000309634 0.00145689 0.000486037 0.00116244 -0.000466333 -0.0029894 -0.0018971 -0.00329311 
-0.000489101 0.000555711 0.00194702 0.00159407 -3.63195e-05 -0.00146677 -0.00123059 0.000828643 0.001646 2.34806e-05 
-0.00151324 -0.000295389 0.000951763 0.000309369 -0.000449014 0.00041894 0.000334537 -0.000714108 -0.000696476 9.41062e-05 
-7.0117e-05 -3.21071e-05 0.000479397 0.000432217 0.000107106 0.000250793 7.81289e-05 -0.000223626 -0.000128112 -0.000185192 
-0.00032441 -0.000181312 -0.000137704 -0.000195326 5.80071e-05 -6.58651e-06 2.73571e-05 0.000208648 4.27846e-05 0.000219294 
0.000171594 8.48227e-05 0.000224714 -2.63427e-06 0.00010148 -1.09204e-05 -9.10403e-05 -2.826e-05 -0.000211035 -6.85372e-05 
-0.000210437 -8.75361e-05 -9.3282e-05 -5.61566e-05 7.67545e-05 2.36034e-05 0.00017604 8.75561e-05 0.000169334 3.29494e-05 
7.80535e-05 -7.78924e-05 -2.12743e-05 -0.000125598 -2.59626e-05 -7.80085e-05 3.15004e-05 -2.90149e-05 2.00004e-05 -5.2493e-05 
3.26803e-06 6.86089e-06 0.000169496 0.000202312 0.000258546 6.90687e-05 -5.48908e-05 -0.0002232 -0.000538595 -0.000714892 
-0.000337819 0.000898474 0.000150204 0.000565734 0.00334541 -0.000999142 0.00475545 -0.000944282 0.00011554 -0.000366351 
0.00070738 0.00280401 0.000955433 0.0028323 -0.000212372 0.00249069 -0.00184481 0.00102721 0.0008982 0.00268145 
0.00311286 0.000438918 -0.00195239 -0.00293219 -0.00110084 0.00137858 0.00194035 0.000322423 -0.00143898 -0.0011106 
0.00086261 0.00130939 -0.000167245 -0.000826419 0.000128107 0.000136958 -0.000822777 -0.000262503 0.000842977 0.000475205 
-4.02496e-05 0.000219137 -5.18057e-05 -0.000604745 -0.000308488 -0.000181314 -0.000258507 6.59062e-06 0.000302571 0.000149017 
0.000288814 0.000369557 0.000121176 0.000218219 0.000106211 -0.000124811 -2.02132e-05 -0.000198658 -0.000236575 -0.000124884 
-0.000308814 -0.000117457 -0.000150622 -0.000143139 7.16268e-05 -7.20743e-05 0.000180634 9.82722e-05 0.000145059 0.000229471 
5.67437e-05 0.00019162 -2.89088e-05 3.28847e-05 -0.000122189 -8.28674e-05 -0.000160136 -0.000106709 -5.51639e-05 -2.72782e-05 
9.62369e-05 6.33643e-05 0.000160588 3.17156e-05 8.95067e-05 -7.90938e-05 -2.10754e-06 -8.29913e-05 4.89504e-05 2.55114e-06 
8.73192e-05 -7.54305e-05 -0.000102107 -0.000252999 -0.000211223 -0.0002163 -0.000144582 0.000365288 0.000720491 0.000566319 
-0.000391487 0.000628173 0.000110114 -0.0028289 0.00164281 -0.0048611 0.000572345 -0.000607001 -0.00182995 0.00169696 
0.000293322 -0.00177719 0.000619176 -0.0015095 0.000956934 -0.000784008 -0.00198509 -0.00118252 -0.00270975 -0.00169065 
-0.00229388 -0.0018345 0.000354593 0.00283599 0.00297196 0.000459499 -0.00263381 -0.00190573 0.000682016 0.00221303 
0.000473566 -0.0014038 -0.000839204 0.000602607 0.000328862 -0.000625877 0.000252101 0.000979629 -2.99321e-05 -0.000887855 
-0.000186016 -0.000140037 -0.000305065 0.000262077 0.000620071 0.000232027 0.000240569 0.000266696 -0.000184596 -0.000263032 
-0.000253923 -0.000383552 -0.000332304 -0.000128771 -0.000184117 -2.54195e-05 0.000195904 9.23296e-05 0.000325507 0.000275424 
0.000185192 0.000326242 5.39628e-05 0.000134804 -3.8519e-06 -0.000134804 -6.4115e-05 -0.000273034 -0.000119479 -0.000233727 
-0.000103081 -6.35051e-05 -1.49103e-05 0.000138003 5.71517e-05 0.000240199 4.47935e-05 0.00017639 -8.34399e-05 2.18948e-05 
-0.000194317 -8.34987e-05 -0.000146929 -3.99474e-05 -2.29726e-06 6.21118e-05 3.74063e-05 3.6175e-06 -4.9193e-05 -7.90471e-05 
-2.66906e-05 6.92171e-05 0.000146509 0.000266394 0.000226142 0.000276409 -0.000479675 -0.000838249 -0.000622002 0.000406282 
-0.000430948 0.000479251 0.00333469 -0.00171936 0.00453304 -0.000980063 -0.000159443 0.00225409 -0.00118414 -0.00213339 
-0.00174463 0.00245478 -0.000239495 0.00220254 0.00146962 -6.10269e-05 -1.37718e-05 0.00062556 0.00152478 0.00332285 
0.00305442 0.00162533 0.000341588 -0.00231645 -0.00314556 -0.0024375 0.000879449 0.00320989 0.00152777 -0.00161262 
-0.0022446 0.000372201 0.00163399 7.48783e-05 -0.000886857 0.000303622 0.000791455 -0.000770985 -0.000989074 0.000432193 
0.000651854 1.61193e-05 0.000336531 0.000348757 -0.000562096 -0.000479151 -0.000234544 -0.000331107 -0.000122534 0.000262185 
0.000282542 0.000322309 0.000487648 0.00024321 0.000130264 0.000135546 -0.000152238 -0.00017761 -0.000221878 -0.000405258 
-0.000219554 -0.000273937 -0.000201696 1.77215e-05 -6.01318e-05 0.000206177 0.000155471 0.000225198 0.000267263 0.000132439 
0.000188316 -4.73688e-05 3.04087e-05 -0.000199047 -0.000108793 -0.000165505 -0.000144533 3.83846e-05 -4.7e-05 0.000216448 
3.83684e-05 0.000207077 -4.06457e-05 5.11594e-05 -0.00020857 -5.94917e-05 -0.000178304 7.08215e-06 -2.91713e-05 0.000117767 
-1.7653e-06 8.32593e-05 -0.000201166 -0.000176428 -0.000489614 0.00026203 0.000537257 0.00016782 -0.000443072 0.000642953 
-0.000151026 -0.00264289 0.00246825 -0.00407356 0.000666558 -4.07878e-05 -0.00329963 2.1352e-05 0.00206021 0.000820521 
0.00351383 0.00110985 0.000799386 0.00196529 -0.000423081 -0.000371624 -0.00145808 -0.000427868 -0.00165652 -0.000876279 
-0.00342211 -0.00273895 -0.00108853 0.0014677 0.00401257 0.00314583 0.00109393 -0.00243105 -0.00303258 -0.000438513 
0.00243564 0.00164466 -0.0012181 -0.00138127 0.000702114 0.000748499 -0.00106107 -0.000606343 0.00120854 0.000735495 
-0.000762113 -0.000279908 3.68746e-05 -0.000599731 -0.000135113 0.00068356 0.00037168 0.000242686 0.000455101 -0.000124473 
-0.000291873 -0.000248455 -0.00050409 -0.000399873 -0.000219771 -0.000122844 4.61499e-05 0.000215774 0.000235084 0.000329827 
0.000342637 0.00021717 0.000222675 3.7285e-06 -3.45274e-05 -0.000158808 -0.000276414 -0.000168262 -0.000356318 -8.689e-05 
-0.000142974 -2.93166e-05 0.000156952 3.44063e-05 0.000257303 3.05638e-05 0.00013857 -8.87622e-05 -4.1463e-05 -0.000166897 
-7.91376e-05 -4.79637e-05 5.05391e-05 0.000180209 0.00020183 0.000200881 0.000119795 3.76347e-05 -0.00014009 -0.00014089 
-0.000257743 6.60907e-05 0.000174353 0.000603464 1.00414e-06 -0.000373528 0.000281653 0.000245565 -0.000973893 3.12936e-05 
0.00228544 -0.00228993 0.00415472 -0.000331166 -0.000761151 0.0025676 -0.000382358 -0.00247697 -0.00112929 0.00053865 
-0.00196425 -0.00375035 -0.000543132 -0.00188903 -0.000564523 -0.00196059 -0.000259939 6.62831e-05 0.00102536 0.00264498 
0.00120114 0.00302913 0.00115642 -0.000189334 -0.00338906 -0.00484088 -0.00259682 0.000888799 0.00375259 0.00231921 
-0.00100433 -0.00274067 -0.000485153 0.00176108 0.000588752 -0.00140304 -0.000142849 0.00157064 0.000163015 -0.00150845 
-0.000191903 0.000760501 -2.46374e-05 7.29703e-05 0.000782516 -0.000217558 -0.000688303 -0.000194212 -0.000441597 -0.000356461 
0.000267407 0.000309646 0.000275853 0.000576895 0.000326762 0.000113223 0.000135386 -0.000261494 -0.000289318 -0.00023771 
-0.000452354 -0.000189938 -0.000169427 -0.000124814 0.000215839 6.16474e-05 0.000330829 0.000259622 0.000188835 0.000243795 
-3.82033e-05 7.38065e-05 -0.000195546 -8.66015e-05 -0.000150244 -9.88148e-05 5.50299e-05 4.55127e-06 0.000232355 2.23929e-05 
0.000180512 -0.000123664 -2.52851e-05 -0.00034944 -0.000114304 -0.000295951 -1.12487e-05 4.03296e-05 0.000276217 0.000330545 
0.000127787 -0.000135657 -0.000494315 -0.000161015 0.000334515 -0.000845292 -0.000224643 0.00116485 -0.000200532 -0.00156508 
0.00238324 -0.0035339 0.000446757 0.00143308 -0.00256011 -0.000806174 0.00111011 -0.000196553 -0.000467832 -0.00137372 
-0.000801956 0.00409403 0.00270964 0.00444673 0.00253316 0.00154081 0.00224394 0.000393749 0.00127453 -0.000727413 
-0.00231032 -0.00160093 -0.00206248 0.000827745 0.00232345 0.00490061 0.00464266 0.00115801 -0.00286599 -0.00425441 
-0.000928384 0.00240917 0.00232384 -0.000963686 -0.00183486 0.000555128 0.00168724 -0.000729137 -0.00170917 0.000494243 
0.00135846 -0.000300516 -0.000535073 0.000291922 -0.000500486 -0.000624052 0.00048733 0.000590314 0.000121025 0.000586735 
0.000229767 -0.000449241 -0.000190578 -0.000434423 -0.000553803 -0.000140878 -0.000139787 2.48211e-05 0.000409398 0.000277224 
0.000367279 0.000386272 5.07216e-05 0.000172071 -0.000141265 -0.000259907 -0.000122935 -0.000452598 -7.95171e-05 -0.000212729 
-1.32457e-05 9.66093e-05 7.94629e-05 0.000235256 2.28335e-05 0.000148176 -0.000135417 -3.60497e-05 -0.000214608 -6.28657e-05 
-7.26679e-05 4.81696e-05 0.000223 0.000183984 0.000243926 0.000137363 -6.78591e-05 -0.000246304 -0.000483094 -0.000223638 
-2.59738e-05 0.000296768 0.000142849 -0.000350624 0.00133832 0.000330699 -0.00146528 0.000619476 0.000554089 -0.00232957 
0.00308791 -0.00019844 -0.00161593 0.00229032 0.000973738 -0.00153066 -0.00040343 -0.000388146 -0.000750756 0.00105992 
0.00304062 -0.000476133 -0.000584794 -0.00137884 -0.00432313 -0.0028819 -0.00323882 -0.00224807 -0.000580031 -0.000964065 
0.000249625 0.00147678 0.000920597 0.000536729 -0.00302791 -0.00452185 -0.0056533 -0.0031876 0.00113118 0.00452049 
0.00362573 -0.000854362 -0.00336248 -0.00109372 0.0021372 0.00137476 -0.00181216 -0.00128295 0.00147737 0.00142095 
-0.00116539 -0.000724095 0.000569915 5.72632e-05 -0.000232609 0.000882987 0.000348971 -0.000760816 -0.000269562 -0.000324641 
-0.000567744 8.08602e-06 0.000394102 0.000271679 0.000475972 0.000477541 2.48427e-05 5.04002e-05 -0.000142651 -0.000520573 
-0.000273797 -0.000391499 -0.000322756 6.14116e-05 -5.96561e-05 0.000276352 0.000237666 0.000276611 0.000269563 1.21904e-05 
0.000184069 -0.000271608 1.29443e-05 -0.000275682 -4.64401e-05 -3.46864e-05 -1.51722e-05 0.000243872 -3.18468e-05 0.000253629 
-0.000132364 4.99638e-05 -0.00037278 -1.04943e-05 -0.000400125 0.000207456 1.79655e-05 0.000641196 0.000144886 0.000181185 
-7.1591e-05 2.02465e-05 0.00047059 -0.00164044 -0.000482401 0.00183947 -0.00140789 0.000449396 0.0021637 -0.0026786 
0.000279779 0.00192163 -0.00172357 -0.00119939 0.00122961 -0.000309735 -0.00103146 0.00034187 -0.000476283 -0.00102877 
-0.00220114 -0.00290384 0.000779418 -0.000430548 0.00138001 0.00252985 0.00268399 0.00345289 0.00285035 0.00118412 
0.00056305 4.21788e-05 -0.000519649 0.000738804 0.00159814 0.0051466 0.00597118 0.00522373 0.000707927 -0.00370579 
-0.00525847 -0.00189702 0.00270037 0.00334177 -0.000626125 -0.0027527 -0.00025762 0.0025682 0.000431775 -0.00201063 
-0.000530048 0.00132773 2.15204e-05 -0.000664285 0.000603011 -0.000237061 -0.00104429 8.34342e-05 0.000696313 0.000163671 
0.000480772 0.000506868 -0.000295429 -0.0002576 -0.00035328 -0.000590051 -0.000223061 -2.3283e-05 4.87818e-05 0.000376201 
0.000382306 0.000353464 0.000416217 4.0239e-05 2.89706e-06 -7.68358e-05 -0.000434654 -7.83482e-05 -0.000372393 -6.13471e-05 
-1.79885e-05 -1.97999e-05 0.000308847 -7.50392e-05 0.000294976 -0.000131091 6.17555e-05 -0.000177727 -4.52631e-05 -6.58301e-05 
-1.69691e-05 0.000282556 4.23743e-05 0.000405963 -0.000100082 5.58795e-05 -0.000474026 -0.000160354 -1.54321e-05 -0.000321155 
-8.14578e-05 -0.00077421 0.0018483 0.000563119 -0.00222417 0.00244579 -0.00131133 -0.00198313 0.00244792 -0.000514464 
-0.00200911 0.00141916 0.00150584 -0.00112086 -9.50851e-05 0.000988043 -0.000985236 -0.00131652 0.000287153 -0.000511537 
-0.000563303 0.00411828 0.00375802 0.00248039 0.00179854 -0.000282111 -0.000914247 -0.00166631 -0.00194768 -0.00254043 
-0.00134964 -0.000694793 -0.000391521 -0.000665224 -0.002753 -0.00405783 -0.00662728 -0.00604249 -0.00315481 0.00237776 
0.00589709 0.00458711 -0.000493843 -0.00419224 -0.00210299 0.0022482 0.00265732 -0.00131805 -0.00243192 0.000562086 
0.0020442 -0.000567576 -0.000993098 0.000670309 0.000256109 -0.00082249 0.000654091 0.00107819 -0.000596825 -0.000361186 
-0.000207691 -0.000753319 -0.000117256 0.00030659 0.000193523 0.00053422 0.000479199 0.000106271 -1.06137e-05 -0.000193252 
-0.00043396 -0.000343236 -0.000350155 -0.000246985 4.06688e-05 3.76328e-05 0.000284157 0.000295651 9.18689e-05 0.000351183 
-0.000148002 9.75285e-05 -0.000215095 -3.15359e-05 -9.21017e-05 -6.32199e-05 0.000166366 -6.05125e-05 0.000205814 -0.000107241 
-2.32688e-05 -0.000284917 -0.000125694 -0.000262551 0.000158701 -6.99529e-05 0.000364395 -0.000533804 0.000813896 -2.82473e-05 
0.0011017 -0.00190379 -0.000587033 0.00277143 -0.00361537 0.0020659 0.00173098 -0.00245147 0.000759685 0.0021665 
-0.00115019 -0.00151713 0.00109349 0.000600742 -0.00138432 -9.31985e-05 0.000836901 -0.000539894 -0.000896095 0.000665163 
0.00225287 0.00110251 -0.00186273 -0.00298484 -0.00448789 -0.00352982 -0.00221802 -0.000734994 0.000254404 0.000178668 
0.00118893 0.00073199 0.000904244 0.00106176 0.00206024 0.00464839 0.00600801 0.00698667 0.00433676 -0.000266199 
-0.0055189 -0.00676208 -0.00257075 0.00307152 0.00458155 0.000120368 -0.00343544 -0.00157486 0.00253644 0.00165681 
-0.00159699 -0.00120282 0.0011733 0.000420662 -0.0011148 0.000456523 0.00057884 -0.00106808 -0.000607656 0.000623382 
0.00019043 0.000355599 0.000826448 -0.000153102 -0.000340665 -0.00012127 -0.000682538 -0.000351823 5.86872e-05 -8.01344e-05 
0.00039191 0.000483891 0.000135608 0.000371931 8.12375e-05 -0.000186511 -9.00905e-05 -0.00034737 -0.00017484 -0.000190682 
-0.000117994 0.000192677 -0.000144889 0.00031238 -0.000145741 0.000188398 -0.000238365 9.90399e-05 -0.000153126 0.000117746 
0.000156977 7.3545e-05 0.000303077 -0.000248748 0.000409873 -0.000372432 0.000924092 -0.000975391 -7.836e-05 -0.000987319 
0.00152706 0.00080842 -0.00368615 0.00489617 -0.00282848 -0.00135771 0.00266036 -0.000843688 -0.00244113 0.00101374 
0.00152264 -0.000865694 -0.00098067 0.0013343 0.000643007 -0.00110988 -0.000568854 0.000105387 -0.00041523 -0.00035293 
-0.00055762 -0.00249706 -0.000612734 0.000212182 0.00214839 0.00438978 0.00464487 0.00478068 0.00318626 0.00181675 
0.00160608 0.00043582 0.000389569 -0.000910968 -0.00186282 -0.00348535 -0.00593111 -0.00654669 -0.00564963 -0.000837352 
0.00427244 0.00791522 0.00566053 -0.000356302 -0.00516907 -0.00344426 0.00192731 0.00377375 -0.000214028 -0.0028949 
-0.000412502 0.00208173 -1.64128e-05 -0.00129461 0.000501041 0.000743871 -0.000833835 -0.000100907 0.00125554 3.14015e-06 
-0.000440726 -1.32441e-05 -0.000768215 -0.000556585 0.000285222 0.000181424 0.000362086 0.000535199 0.000245254 8.86801e-06 
-0.000143736 -0.000401016 -0.000287909 -0.000256992 -0.00017379 0.000195203 7.35314e-05 0.00028437 0.000313075 9.49449e-05 
0.000173412 -0.00013716 6.56734e-05 -0.0001634 -9.77296e-05 0.000127778 -0.000170665 0.00021783 -0.000221457 7.26045e-05 
-0.000149447 -3.59952e-05 0.000148847 -0.000317505 5.60269e-05 -0.000829721 0.000642722 0.000602373 0.000228102 -0.000747844 
-0.00125636 0.00480053 -0.00601486 0.00354911 0.00112482 -0.00308708 0.000797328 0.00271804 -0.000882458 -0.00157768 
0.000705181 0.00129631 -0.000883486 -0.00105421 0.000740181 0.000426042 -0.000571787 -0.000363128 -0.000117719 -0.000531761 
-0.000998012 0.0017952 0.00309267 0.00195175 0.00111252 -0.00116511 -0.0034964 -0.00459977 -0.00601477 -0.00544585 
-0.00418746 -0.00362455 -0.00186644 -0.00159504 0.000838597 0.00231939 0.00456588 0.00596022 0.00526532 0.00223496 
-0.00369433 -0.00793191 -0.00844551 -0.0028216 0.00367785 0.00582836 0.00124165 -0.00363884 -0.00275767 0.00177038 
0.00247096 -0.0010935 -0.00155163 0.000972 0.000889997 -0.00121921 2.72456e-05 0.000980803 -0.000744028 -0.000828599 
0.000331719 7.06426e-05 0.000237015 0.000897312 0.000299953 -0.00026691 -0.000139339 -0.000479917 -0.000450077 -8.69548e-05 
2.02447e-05 0.000112635 0.000491757 0.00016485 0.00017356 1.2313e-05 -0.000298314 -5.51151e-05 -0.000489155 -9.40173e-05 
-3.85863e-05 -0.000224049 0.000316472 -0.000148751 0.000347888 -0.000201382 0.000337497 -0.000172899 0.000304251 -0.00026724 
0.000199722 -0.000437722 0.000402791 1.43801e-06 0.000701005 -0.000393967 -0.00110631 0.00064517 0.000159089 0.00143407 
-0.00546995 0.00646681 -0.00394557 -0.00139606 0.0037456 -0.000703248 -0.00286342 0.000731222 0.00175772 -0.000560783 
-0.00144533 0.000436409 0.00127411 -0.000344625 -0.000562623 0.000336683 -0.000156831 -0.000584998 -0.000146357 0.000266471 
0.00109457 0.00230856 -0.000514145 -0.00260433 -0.00353196 -0.0030783 -0.000874647 0.00200731 0.00358264 0.00581771 
0.00629646 0.0058449 0.00533602 0.00297136 0.00242278 -0.000779777 -0.00222381 -0.00461611 -0.00426252 -0.00204751 
0.00284754 0.00809659 0.0100365 0.00642991 -0.0010656 -0.00641984 -0.00465789 0.0013301 0.00436815 0.000779625 
-0.00262548 -0.00115536 0.00193958 0.000543028 -0.00156443 0.000147588 0.00113065 -0.000730527 -0.00065618 0.00121649 
0.000389125 -0.000510118 0.000284268 -0.000616646 -0.000916757 9.58188e-05 -2.52528e-05 0.000242609 0.000622082 0.000124286 
0.000131958 -1.0258e-05 -0.000263083 -0.00037658 -3.17634e-05 -0.000174061 0.00015903 0.00031586 0.000187974 0.000304154 
8.41278e-05 0.000137261 -9.00314e-05 -0.000215067 8.69806e-05 -0.000522608 0.000265082 -0.000643733 0.000635021 -0.000523583 
0.00083616 -0.000685627 0.000201004 -0.0006626 0.000475437 0.00138806 -0.00124555 -7.93091e-05 -0.00108383 0.00532715 
-0.00623539 0.00401442 0.00205242 -0.00428948 0.000440618 0.0030769 -0.000693629 -0.00191741 0.000302514 0.00163067 
-9.02926e-05 -0.00120683 4.82052e-05 0.000742616 -0.000356534 -0.000224637 0.000302519 -0.000181734 -0.000573309 0.000130905 
0.000764319 -0.000915273 -0.00220939 -0.00104824 0.000997031 0.00346968 0.00459589 0.00358297 0.000629692 -0.00146326 
-0.00431345 -0.0054581 -0.00595967 -0.00584267 -0.00353212 -0.00256046 0.000575432 0.00166068 0.00299249 0.000940458 
-0.00287374 -0.00811772 -0.0111942 -0.00927647 -0.0022866 0.00525541 0.00725019 0.0022484 -0.00370039 -0.00348113 
0.00109722 0.00267902 -0.000682595 -0.00173253 0.000591262 0.00127316 -0.000946146 -0.000620577 0.00127755 -0.000119761 
-0.00114696 4.73646e-05 0.000144851 -1.68903e-05 0.000735068 0.000656073 3.23836e-05 -6.22945e-05 -0.000340177 -0.000372923 
-0.000212796 -5.20754e-05 0.000159087 0.0001701 0.000265083 3.87251e-05 0.000111394 -0.000433328 -5.6723e-05 -0.000366221 
-0.000211102 -2.41992e-05 2.5629e-05 0.00017745 0.00021166 0.000217459 0.000289461 -0.000199978 0.000130951 -0.000376033 
0.000326552 0.00028641 -1.28143e-05 -0.000154783 -0.00205718 0.00203166 -3.51211e-05 0.000676003 -0.00478356 0.0060081 
-0.00422353 -0.00244437 0.00417512 0.000212485 -0.00365462 0.000842769 0.00198449 0.000163048 -0.00182351 -0.00016288 
0.00113113 0.00019258 -0.000831653 0.000187924 0.000576884 -0.000334396 -0.00043556 5.77708e-05 -6.27517e-05 -0.000349026 
-0.000410396 -0.000692676 0.000806339 0.00197968 0.00186926 0.000479402 -0.00224455 -0.00480662 -0.00561011 -0.00399468 
-0.00178057 0.00123969 0.00309969 0.00412845 0.00465085 0.00302293 0.00199503 -0.000139851 -0.000535661 0.000283083 
0.00349934 0.00838085 0.0117572 0.0116253 0.00525585 -0.00294116 -0.00847803 -0.00574441 0.000720221 0.00483859 
0.00153462 -0.00240346 -0.00156433 0.00181199 0.00102236 -0.00157016 -0.000206183 0.0012146 -0.000330274 -0.0010003 
0.000566886 0.000812778 -0.000198883 0.000210166 -0.000286021 -0.000926231 -0.00026464 -7.58447e-05 -9.45504e-05 0.000547171 
0.000245783 9.32237e-05 3.01557e-05 -0.000155769 -0.000139533 -0.000211249 7.64045e-05 2.2866e-05 0.000333028 0.000125968 
0.000425315 -0.000223595 0.000138662 -0.0003143 -0.000216372 -0.000130585 -0.000141325 0.000353208 -0.000406525 0.000337769 
-0.00129205 0.00115678 -0.000603545 0.00307244 -0.00302247 0.000361584 -0.000284188 0.0040554 -0.00607096 0.00463749 
0.00231713 -0.00353411 -0.00101482 0.00440639 -0.000793069 -0.00213632 -0.00061407 0.0017976 0.000566549 -0.00119271 
-0.000306276 0.000841567 0.000218277 -0.000769069 -2.70234e-05 0.000528977 -0.000105953 -0.000444981 -0.000105485 -4.11158e-05 
-7.47272e-05 0.00102387 0.00141082 -0.000256375 -0.00203192 -0.00268967 -0.00205453 0.00056964 0.00374284 0.00619703 
0.00673766 0.00536754 0.00314341 0.00051709 -0.000493581 -0.00193341 -0.00109682 -0.000982364 -0.000330919 -0.00140819 
-0.00425556 -0.00821333 -0.0123509 -0.0124331 -0.00813329 0.000921573 0.00805397 0.0091442 0.00275548 -0.00362011 
-0.00400746 0.000414277 0.0027457 -0.000121784 -0.00193276 0.000111461 0.00142807 -0.000542803 -0.00108619 0.0011051 
0.000418868 -0.000795747 -0.000138798 -0.000276057 -0.000225453 0.000825175 0.000458034 0.000338767 0.000167261 -0.000188413 
-0.000360612 -0.000195152 -6.93069e-05 -5.42755e-05 0.000168409 0.00016193 -0.000157335 0.000172185 -0.000299203 -0.000212595 
-5.48627e-06 -0.000146592 0.000249647 2.25113e-05 0.000208395 -1.53369e-05 -0.000294744 0.000572167 -0.000316664 0.00162338 
-0.00156904 0.000655099 -0.00320549 0.00315947 1.31247e-05 -0.00101426 -0.0025524 0.00570275 -0.00460531 -0.00220297 
0.00321453 0.00141526 -0.00479852 0.000122585 0.00249112 0.000899117 -0.00142748 -0.00108308 0.00132202 0.000519201 
-0.000796979 -0.000551389 0.000655564 0.00050489 -0.000501856 -0.000170224 0.000205404 -0.00011701 -0.000232453 4.54057e-05 
0.000440674 0.000861799 -0.000428718 -0.00212715 -0.00107035 0.00104754 0.00304352 0.00377288 0.00155847 -0.00151692 
-0.00533588 -0.00774167 -0.00816622 -0.00757121 -0.00490349 -0.00414831 -0.0017924 -0.00183971 -0.000199989 0.000709555 
0.00395411 0.00761401 0.0116499 0.0126995 0.00927183 0.000941375 -0.00748825 -0.0112849 -0.00688641 0.000818077 
0.00512591 0.00209544 -0.00201762 -0.00165647 0.00112017 0.00136771 -0.00103229 -0.000554514 0.000937416 0.000213746 
-0.000842884 -0.000161895 0.00051209 0.000199337 0.000337665 6.53165e-05 -0.000789159 -0.000426623 -0.000364738 8.55231e-05 
0.000160099 0.000156735 0.000444339 -2.37824e-05 -7.994e-05 0.000182911 -0.000335156 0.000303739 -0.000201381 0.000336628 
-0.000319562 0.000372396 -0.000384831 0.000363696 -0.000295234 0.000577121 -0.000894817 0.000237519 -0.00161009 0.00148431 
-3.57041e-05 0.00232726 -0.0023722 -0.00122925 0.00329662 0.000345929 -0.00469217 0.00414663 0.00221703 -0.00341466 
-0.00164633 0.00492164 0.000777297 -0.00255468 -0.00125297 0.00109384 0.00143759 -0.0011333 -0.000984328 0.000841559 
0.000747274 -0.000264659 -0.000768877 0.000318635 0.00033239 -0.000207459 -4.27624e-05 -2.43009e-05 -0.000130017 1.17129e-05 
0.00039572 0.000133498 -0.00104346 -0.000612544 0.00174967 0.0018644 0.000827007 -0.00224206 -0.00466606 -0.00389338 
-0.00174384 0.00297951 0.00647927 0.00918373 0.0103102 0.00898242 0.00836221 0.00575944 0.00465904 0.00138316 
-0.00116171 -0.00601065 -0.0092812 -0.011693 -0.00861347 -0.00200376 0.00758612 0.0126874 0.0108452 0.00281631 
-0.00412622 -0.00446045 -0.000247981 0.00257205 0.000253825 -0.00145277 -0.000141515 0.000858551 -0.000153626 -0.00082141 
0.000475672 0.000434829 -0.00020389 0.000170884 -0.000365124 -0.000740732 0.000527226 0.000572697 0.000251465 0.000395653 
-0.000245335 -0.000123736 -0.000401617 -0.000163059 -0.000175661 3.22048e-05 3.03143e-05 0.000187358 -0.000220383 0.000517098 
-0.000628641 0.000584365 -0.000992561 0.000746221 -0.00113371 0.0016124 -0.000571388 0.0019363 -0.00180446 -0.000274094 
-0.00154467 0.00188062 0.00209879 -0.00518083 0.00133854 0.00402051 -0.00437078 -0.00167654 0.00327448 0.00265986 
-0.00543834 -0.00102132 0.00185206 0.00188571 -0.00100845 -0.00153496 0.000637564 0.00161374 -0.000668165 -0.000888937 
7.73573e-06 0.000761988 1.52396e-05 -0.000415425 0.00020808 6.54391e-05 -0.000143951 -0.000136106 -2.71487e-05 -4.51737e-07 
0.00028787 -8.62166e-05 -0.00045129 0.000852974 0.000987596 -0.000985936 -0.00179052 -0.0025525 0.000580155 0.00392105 
0.00552589 0.00520477 0.000833031 -0.00297445 -0.00767234 -0.0101155 -0.0111348 -0.0105797 -0.00869285 -0.00618473 
-0.00222848 0.0017372 0.00629535 0.00824762 0.00706468 0.000672458 -0.00777257 -0.0143868 -0.014328 -0.00680748 
0.0019218 0.00570975 0.00273869 -0.00124459 -0.00157966 0.000273072 0.00103364 -0.000502128 -0.000274832 0.000593156 
-6.68198e-07 -0.000269606 4.5928e-05 -0.000520827 0.000181573 0.000569711 0.000206006 -0.00026394 -0.000286066 -0.0005917 
-7.48063e-06 0.00053249 -0.000215896 0.00071888 -4.78035e-05 0.000119087 -0.000106333 -0.000128669 -0.000285716 0.000281199 
-0.000177233 0.000865367 -0.000457744 0.000964242 -0.00162997 0.000279941 -0.00165024 0.00172778 0.000851738 0.000551255 
-0.00152772 -0.00258213 0.00635917 -0.00244442 -0.00379067 0.00532229 0.000820679 -0.00258961 -0.00438363 0.00623336 
0.000731915 -0.00102565 -0.0022154 0.00068551 0.00186522 -0.000163919 -0.00190942 2.29784e-05 0.00121159 0.000122723 
-0.000527552 -0.000213188 0.000459219 -3.46676e-05 -0.000191589 0.000111802 0.000162699 -0.000181379 -0.000226994 2.74267e-05 
0.000230547 -0.000197504 0.000220218 0.000580887 -0.000987588 -0.00119049 9.08891e-05 0.00133373 0.00360435 0.00131775 
-0.00171882 -0.00562827 -0.00751762 -0.0053488 -0.0021034 0.00328718 0.0066839 0.00977142 0.00975658 0.00892408 
0.00582763 0.0021076 -0.00188959 -0.00436183 -0.00359809 0.00132132 0.00932826 0.016167 0.017102 0.0106984 
0.000911941 -0.00598781 -0.00521818 -0.00110266 0.0016047 0.000544261 -0.000218228 2.87048e-05 -0.000156903 -0.000217229 
2.36867e-05 -6.009e-05 6.22183e-05 -4.91255e-05 0.000723153 -0.000422213 -0.000551634 2.36203e-05 -0.000188777 0.00057341 
0.000413399 -0.000513764 7.93766e-05 -0.000187298 -0.000465457 0.000447248 -0.000477154 0.000538353 -0.000244652 -0.000123521 
-0.000455961 -0.000176004 -0.00013554 0.000881706 0.000775666 0.000340023 -0.000694358 -0.00234657 0.00140222 0.000402914 
0.00352172 -0.00776166 0.00419557 0.0028831 -0.00559829 -0.000839978 0.00215475 0.00574218 -0.00654493 -0.000884312 
0.00116805 0.00167858 0.000307296 -0.00251805 -0.000292334 0.00179314 0.000904982 -0.0013729 -0.000396092 0.000494434 
0.000245441 -0.000262204 -0.00021877 0.00032359 0.000138937 -0.000244047 1.27915e-05 0.000137532 -0.000127301 -0.000115569 
-1.69469e-05 7.6987e-05 0.000671644 -0.000516834 -0.00112737 0.000702874 0.00131853 0.00118031 -0.00050955 -0.00372855 
-0.00311859 -0.00121337 0.0039035 0.00768486 0.0090298 0.00740431 0.0033341 -0.000587985 -0.00429875 -0.00563518 
-0.00539363 -0.00351436 -0.000703894 0.000931506 0.000548866 -0.00413455 -0.0107702 -0.017805 -0.0191948 -0.0138913 
-0.00292642 0.00534199 0.00762744 0.00401171 0.000101076 -0.000928212 -0.000649933 -0.000271987 6.46825e-05 0.000657985 
0.000458435 -0.000728544 0.000323628 0.000621745 -0.000704397 -0.000534029 0.000954277 9.38532e-05 -7.61046e-05 0.000501108 