# vtk DataFile Version 2.0
Titre
ASCII
DATASET STRUCTURED_POINTS
DIMENSIONS 100 100 1
ORIGIN 0.0 0.0 0.0
SPACING 0.1 0.1 0.0
POINT_DATA 10000 
SCALARS rho float
LOOKUP_TABLE default
-0.00203594 0.00177641 -0.00196858 -0.00222327 -0.000990485 0.00113905 0.00206285 -0.000998127 -0.0024182 0.00212034 
0.00469157 8.86979e-05 -0.00488258 -0.00314689 0.00273004 0.00387431 -0.000268246 -0.003656 -0.00192489 0.00173435 
0.00313565 0.00134875 -0.00131284 -0.0026587 -0.00152443 0.00110032 0.00265499 0.00182929 -0.000175666 -0.0015784 
-0.00179916 -0.000964967 0.000339648 0.00108787 0.000978457 0.000380565 -0.000241853 -0.000686725 -0.000647586 -0.000319127 
-2.66896e-05 0.000296952 0.000387539 0.000341056 0.000277409 0.000131395 5.41509e-05 1.65053e-05 -2.65457e-05 -3.90483e-06 
-2.26869e-05 -3.06489e-05 -3.0664e-05 -8.43559e-05 -6.83975e-05 -0.000120044 -0.000113288 -0.000106933 -0.000130013 -6.82095e-05 
-0.000101334 -2.31404e-05 -2.41647e-05 3.45933e-05 6.69434e-05 7.83699e-05 0.000132156 8.06014e-05 0.000126115 2.5563e-05 
1.58447e-05 -6.3449e-05 -0.000109902 -0.000114567 -0.000131941 -5.07298e-05 -2.3374e-05 7.67974e-05 7.06196e-05 0.00010546 
4.77741e-05 5.46769e-05 1.53345e-05 4.37561e-05 2.65768e-06 -6.45893e-05 -0.000274646 -0.000480133 -0.000592538 -0.000418248 
-1.0409e-05 0.000433088 0.000902524 0.000785841 9.01784e-05 0.000241119 0.000240684 -0.00134589 0.000260215 -0.00690732 
0.000407126 0.00126205 -0.0014332 0.00195009 0.00142796 0.00212065 0.0017715 0.00101162 0.000395212 0.000182164 
-0.00312181 -0.00224111 6.88238e-05 0.00303753 0.000951411 -0.00151609 -0.00188021 0.000719125 0.00125806 0.00021172 
-0.000739607 -8.0934e-05 -3.45142e-05 -4.95315e-05 0.000452032 0.000889209 4.22292e-06 -0.000809811 -0.00066958 -0.000323962 
-0.0001465 0.000247907 0.000502545 0.000270595 0.000101408 0.000117982 -6.88953e-05 -5.68229e-05 2.31284e-05 -3.66688e-05 
-7.81316e-05 -1.24402e-05 -0.000117866 -0.000103181 -3.57618e-05 -0.000152249 -1.80624e-05 -4.82036e-05 -5.44241e-05 7.21339e-05 
-2.9345e-05 8.79666e-05 6.64486e-05 4.83767e-05 0.000133533 3.48893e-05 0.000118532 3.66885e-05 4.86614e-05 1.79344e-05 
-4.83928e-05 -2.17103e-05 -0.000142257 -6.11547e-05 -0.00017204 -8.1987e-05 -9.24828e-05 -3.38226e-05 5.21509e-05 7.74873e-05 
0.000172004 0.000137812 0.000158322 5.15113e-05 -3.29214e-06 -0.000105109 -0.000136316 -0.000124619 -5.76377e-05 3.63586e-05 
9.06753e-05 0.000107722 4.01848e-05 -9.22999e-06 -3.7363e-05 4.31346e-05 0.000115376 7.95497e-05 -5.85861e-05 -0.000281498 
-0.000289566 -0.00044913 -0.000188512 0.000670094 0.000319037 -0.000581451 0.00258497 -0.000639027 0.00547562 0.000795798 
-0.000304978 -0.00157163 -0.00061359 0.000205279 -0.00107591 -0.00104903 0.000304874 -0.00109115 0.00117353 -0.000479467 
0.000757934 0.00113095 0.000874205 -0.000979469 -0.00182134 -0.000232523 0.00148823 0.000752445 -0.00104919 -0.000708115 
0.000770407 0.000715726 -0.000526353 -0.000334837 0.000318899 -0.000139878 -0.000610428 0.000105412 0.000526773 0.000173836 
0.000116186 0.000264486 -0.000140303 -0.000346812 -0.000200024 -0.000229907 -0.00029748 -2.25998e-05 1.86153e-05 -5.7901e-05 
0.000207929 0.000116178 0.000121785 0.000250407 7.83049e-05 0.000128369 0.00013383 -9.64566e-06 8.64989e-05 -3.81834e-05 
-7.04603e-05 -2.52886e-05 -0.000185193 -5.66328e-05 -0.000171263 -0.000130701 -6.0917e-05 -0.00016252 4.57777e-05 -7.57855e-05 
9.33621e-05 8.50118e-05 9.9713e-05 0.000192577 8.70896e-05 0.000172074 1.91647e-05 5.27767e-05 -8.02918e-05 -7.48518e-05 
-0.000132512 -9.2875e-05 -7.21692e-05 2.17316e-06 3.5563e-05 6.64875e-05 4.15802e-05 -8.71794e-06 -6.04724e-05 -7.87067e-05 
-3.38627e-05 5.46335e-05 0.000160581 0.000168061 9.39001e-05 -0.000148638 -0.000312983 -0.00059037 -0.000609729 -0.000539223 
0.000258127 0.000925289 0.000609106 0.00110272 0.00137086 -0.00251052 0.000471752 -0.00467527 0.000360605 -0.00156132 
-0.000625105 0.000863942 2.86493e-06 0.00174699 -0.0011332 0.00356322 0.00113162 0.00239198 0.000229725 -0.00196983 
-0.00217453 -0.00182388 -0.000344485 0.000836219 0.0014647 0.0007637 -0.000672865 -0.00132829 0.000148291 0.00114585 
0.000259485 -0.0011562 -0.000376841 0.000722478 0.000292377 -0.000311415 0.000370593 0.000483441 -0.000381774 -0.000584211 
-0.000120152 -0.000247785 -0.000253718 0.000191461 0.000356536 0.000144339 0.000362418 0.000300585 6.75433e-06 3.28597e-05 
-4.78849e-06 -0.00025137 -0.000139682 -0.000169642 -0.000333541 -5.17901e-05 -0.00017689 -0.000109319 9.60147e-05 -0.000100646 
0.000173596 0.000100647 9.53795e-05 0.000276512 5.19853e-05 0.000246502 7.57488e-05 6.8507e-05 6.90401e-05 -0.000123974 
-3.7797e-06 -0.000238137 -9.23423e-05 -0.00022162 -0.000122784 -8.06711e-05 -3.21167e-05 7.94104e-05 0.000104415 0.000176129 
0.000123932 0.000123551 -7.85917e-06 -3.41532e-05 -0.00014984 -0.000118532 -0.000136557 -2.6354e-05 -1.05637e-05 5.21738e-05 
2.44622e-06 -3.89595e-05 -7.28148e-05 -4.95423e-05 9.23426e-05 0.000167939 0.000356874 0.000315711 4.37039e-05 -0.000779253 
-0.00130435 -0.000204479 -0.00015178 0.000150396 0.00395121 -0.000611902 0.00457658 -0.00203858 0.00153365 0.00152127 
0.00102998 -0.000950774 0.00153228 -0.0016853 0.000308 0.000773507 -0.00113237 -0.000211719 -0.00195578 -0.000371145 
0.00176524 0.00314033 0.00230229 -0.000138957 -0.00228531 -0.00161505 0.000163143 0.00161267 0.000713456 -0.00100791 
-0.00108909 0.00046388 0.00126681 -6.82987e-06 -0.000599073 4.18941e-05 0.000155096 -0.000767623 -0.000391637 0.000472099 
0.000460673 0.000143014 0.000413292 0.000196006 -0.000301697 -0.000281508 -0.000227448 -0.000405727 -0.000306067 4.81488e-05 
-7.28217e-05 0.000126743 0.000333972 0.000107415 0.000320059 0.000292347 5.89025e-05 0.000230178 -4.42442e-05 -9.29565e-05 
-1.54295e-05 -0.000315762 -9.65984e-05 -0.000267146 -0.000245337 -7.67881e-05 -0.000260421 7.11397e-05 -6.79861e-05 0.000118584 
0.000173981 0.000124517 0.000264391 9.06484e-05 0.000179729 -5.34531e-05 3.13387e-05 -0.000202841 -9.04687e-05 -0.000199703 
-5.3985e-05 -3.15517e-05 0.000106941 0.000132441 0.000171473 0.000100981 -1.77214e-06 -0.00010542 -0.000170095 -0.000165563 
-5.66189e-05 3.67317e-05 0.000173989 0.000130055 0.000132639 -0.000167686 -0.000404327 -0.000429521 1.18096e-05 0.00038233 
-0.000646357 0.000185203 0.00081608 -0.00248371 0.00304421 -0.00354768 0.00269018 -0.00126389 -0.00299425 -3.536e-05 
-0.00302881 -0.000250631 -0.00144771 -0.00155969 0.00101228 0.00053664 0.000925206 0.00114601 -0.000128672 -0.000155965 
-0.000618384 -0.00239798 -0.00246083 -0.00189523 0.00129283 0.00280239 0.00146259 -0.00133548 -0.00209303 2.69581e-05 
0.00179237 0.00079213 -0.00105805 -0.000955346 0.000438244 0.000285312 -0.00048938 0.000172841 0.000948852 0.000208171 
-0.000539517 -0.000192808 -0.000346665 -0.000506997 -0.000105282 0.000357621 0.000224986 0.00032462 0.000464864 0.000180767 
2.06392e-05 -1.77329e-06 -0.000249256 -0.000361856 -0.000181835 -0.000372991 -0.000248722 -5.83004e-05 -0.000196181 0.000172869 
0.000123348 0.000171351 0.000386339 0.000142606 0.0003516 0.000152236 0.000103561 8.86586e-05 -0.000158978 -4.05522e-05 
-0.000313569 -0.000131797 -0.000284712 -0.000116491 -7.01087e-05 -9.9218e-06 0.000164715 9.07033e-05 0.000255463 3.36981e-05 
0.00014609 -0.000151625 -1.92751e-05 -0.000228901 -3.33405e-05 -5.82996e-05 0.000168043 0.000133302 0.000260639 6.76298e-05 
5.67928e-05 -0.000208891 -0.000167745 -0.000273193 6.02965e-05 0.000415077 0.000450596 0.000112173 -0.000346882 0.000526103 
-0.000765395 -0.00139063 0.00269736 -0.00279943 0.0050986 -0.0015699 0.00123393 0.00293874 -0.0001278 -0.00108418 
0.00223864 0.00274955 0.000326407 0.00215422 0.00150626 0.00180764 -4.9776e-05 0.000545627 -0.00186544 0.000866683 
0.00113076 0.00282756 0.00323308 0.00192434 0.000423523 -0.00253705 -0.002733 -0.000625425 0.00233531 0.00196935 
-0.000885415 -0.00207149 -0.00014519 0.0014671 0.000349059 -0.000679545 0.000200647 0.000750284 -0.00064384 -0.000974258 
8.281e-05 0.000375085 2.38782e-05 0.000513478 0.000598169 -0.00012824 -0.000232913 -0.000278907 -0.000441948 -0.000412594 
-0.000118471 -1.27919e-05 6.07679e-05 0.000412015 0.000333664 0.000292258 0.000410161 0.00010522 0.000115948 3.96498e-05 
-0.000275792 -0.000127964 -0.000371834 -0.000320075 -0.00020615 -0.000321186 1.0603e-05 -8.37407e-05 0.000156081 0.000195125 
0.000211958 0.00033214 0.000103716 0.000275112 -0.000110016 8.00968e-05 -0.000248193 -8.18153e-05 -0.000179956 -5.87009e-05 
5.46177e-05 7.24042e-05 0.000186989 8.54323e-05 6.91027e-05 -0.000170597 -0.000157729 -0.000355945 -0.000196342 -0.000200829 
0.000119102 0.000212976 0.000399838 0.000229677 -0.000267808 -0.000231952 -0.000222965 -2.54108e-05 -0.0010834 0.000396641 
0.00122693 -0.00281774 0.00368806 -0.00437522 0.00274227 0.000646625 -0.00210478 0.000400979 0.000167881 0.000996769 
-0.000148349 -0.00415702 -0.0018444 -0.00314125 -0.000122108 -0.00173107 -0.000281734 -0.000499933 -0.00117835 0.00103473 
-0.00150288 -0.00148761 -0.00404456 -0.0033037 -0.00112642 0.00160026 0.00349493 0.00209075 -0.000827246 -0.0028955 
-0.00113463 0.0017904 0.00184347 -0.000667782 -0.00134914 0.0003462 0.000648982 -0.000900082 -0.000633449 0.00100261 
0.000849959 -0.000392415 -4.68986e-05 -1.41521e-05 -0.000707804 -0.000466597 0.000230686 0.000167602 0.000296596 0.000638935 
0.0002391 9.48324e-05 4.08475e-05 -0.000284788 -0.000391928 -0.000372775 -0.000412443 -0.000287409 -7.05595e-05 -6.03453e-05 
0.000176978 0.000251873 0.000261134 0.000417057 0.000192389 0.000287038 5.44287e-05 -7.33732e-05 -3.34568e-05 -0.000393818 
-0.000118777 -0.000357731 -0.000166004 -6.13816e-05 -8.86303e-05 0.000224757 -2.62307e-06 0.000294909 -5.07648e-05 0.000125104 
-0.000217993 -2.0477e-05 -0.000257833 7.57639e-06 3.83518e-06 0.00021793 0.000231386 0.000309767 0.000148998 -1.42852e-05 
-0.000354767 -0.000405708 -0.000508689 0.00021843 -2.44122e-05 0.000217531 0.000277402 0.00128187 -0.000416949 -0.00155853 
0.00239977 -0.00453926 0.00428566 -0.0021323 -0.000425947 0.00298369 1.9621e-05 2.24215e-05 0.000271905 -0.00194109 
-0.00247421 0.0015317 6.34233e-05 0.00296986 0.00311314 0.00173393 0.00257951 2.29064e-05 0.000733229 0.00126679 
0.000814116 0.00273073 0.00252744 0.00416114 0.00250889 -0.000377575 -0.0034374 -0.00384852 -0.000801961 0.00244657 
0.00287279 -0.000143244 -0.00238492 -0.000985156 0.00135751 0.000726656 -0.00104498 -0.000183237 0.00142093 0.00029985 
-0.00126874 -0.000420678 0.000357378 -0.000164151 9.65237e-05 0.000902459 0.000162613 -0.000243824 -5.96475e-05 -0.000496666 
-0.000615033 -0.000172459 -5.34791e-05 -1.29789e-06 0.000448168 0.000395738 0.000340055 0.000517005 0.000104851 1.50798e-05 
-8.51717e-06 -0.000423854 -0.000189493 -0.000383048 -0.000368539 -5.62786e-05 -0.000232734 0.0001768 0.000126103 0.000245233 
0.000349821 0.000129921 0.000297569 -7.56172e-05 5.61665e-05 -0.000213274 -0.000101953 -0.000156228 -6.09771e-05 0.000102975 
4.17308e-05 0.000237679 6.72401e-05 8.84959e-05 -0.00016331 -0.000115399 -0.000347781 -0.000135798 -0.000137557 0.00036125 
0.000256285 0.000604591 -0.000174414 0.000294527 0.000112009 -0.000416564 -0.00122216 0.000275061 0.00136318 -0.00254057 
0.00461599 -0.00424645 0.00192371 0.00141833 -0.00224669 0.000837425 0.000835842 -0.00117888 0.000450775 0.00113848 
0.00276226 0.000387679 -0.000160217 0.00111899 -0.00126952 -0.000658677 -0.00150939 -0.00195253 -0.000689004 -0.00055106 
-0.00129515 -0.00179611 -0.00387319 -0.00338447 -0.00348233 -0.000678162 0.00238194 0.00467561 0.00316316 -0.000917126 
-0.00367514 -0.00198382 0.00151434 0.00247017 -0.000356653 -0.00157411 0.000197961 0.0015052 -0.000638002 -0.00153735 
0.000187399 0.00117921 -2.64989e-05 -0.000111722 0.000358618 -0.00049101 -0.000771515 1.40584e-05 0.000245419 2.91887e-05 
0.000665261 0.000571084 2.42719e-05 0.000150696 -0.000192298 -0.000549457 -0.000287208 -0.000441979 -0.000402794 5.37237e-05 
-3.48712e-05 0.000279883 0.000457574 0.000181145 0.000525558 9.36952e-05 8.8439e-05 3.55198e-05 -0.000353615 -0.000108477 
-0.000407245 -0.000153121 -0.000170127 -5.41371e-05 0.000173927 1.27962e-05 0.000316711 -3.58073e-05 0.000173075 -0.000207689 
5.16529e-05 -0.000304207 5.98443e-05 -6.73097e-05 0.000200393 0.000192599 0.000267186 0.000144504 -0.000215673 -0.000176753 
-0.000473571 4.77697e-05 -0.000385006 -0.000627863 0.000648751 0.00100033 -0.000179194 -0.000978368 0.00244297 -0.00466204 
0.00374177 -0.00184691 -0.00204 0.00245033 -0.000123013 -0.000785774 0.00174844 0.00043979 -0.00173513 -0.000452044 
-0.00203136 -0.00468995 -0.00147546 -0.00196876 -0.000570937 -0.000135366 -0.000164804 -1.21074e-05 0.000855762 0.000849368 
0.000941892 0.00176672 0.00237959 0.0042785 0.00336005 0.00190333 -0.0018396 -0.00446415 -0.00484881 -0.00142775 
0.00288839 0.00393311 0.000483689 -0.00268107 -0.00166876 0.00156547 0.00131958 -0.00136858 -0.00126326 0.00131833 
0.00134196 -0.000815504 -0.00056283 0.000216934 -0.000267405 -0.000326185 0.000863368 0.000561366 -0.000219958 -2.67694e-05 
-0.000298813 -0.000668029 -0.000427149 -6.36868e-05 -4.72388e-05 0.000303956 0.000587161 0.000258977 0.000415934 0.000284184 
-0.000208229 -2.8208e-05 -0.000439177 -0.00045071 -0.000249694 -0.000419047 4.35682e-05 -0.00010757 0.000301856 0.00021754 
0.000231102 0.000345741 -7.33041e-06 0.000167718 -0.000224609 -8.29524e-06 -0.00023234 -6.75838e-05 4.00356e-05 -6.64982e-05 
0.000245073 -3.53113e-05 0.000127289 -0.000186967 -0.0001069 -0.000298268 -0.00017815 8.49865e-05 3.35701e-05 0.000177937 
-3.02033e-05 0.000271447 0.00109375 -0.000879967 -0.000693778 0.000461309 0.000383001 -0.00208676 0.00420619 -0.0034913 
0.00140035 0.00236582 -0.0024009 -0.00010733 0.00174844 -0.000896505 -0.000812883 0.00103843 0.000474776 -0.00168272 
-0.00193726 0.00236902 0.00279464 0.00385261 0.00387136 0.00251307 0.00196913 0.00084577 0.00146598 0.000248284 
-6.01965e-05 -0.00128327 -0.00224205 -0.00281683 -0.00371312 -0.00212183 0.000597522 0.0044256 0.00589758 0.00368028 
-0.000999633 -0.00455451 -0.00291785 0.00128623 0.00320968 6.45684e-05 -0.00223113 -0.000504606 0.00227747 0.000466731 
-0.0017528 -0.000633648 0.00102052 -7.67724e-05 -0.000317492 0.000839553 -0.000130694 -0.000965082 -0.000278425 0.000163717 
2.12315e-06 0.000507167 0.000670176 0.000204948 0.00014893 -6.24109e-05 -0.000513683 -0.000417426 -0.000361281 -0.000366519 
4.48695e-05 0.000110928 0.000202085 0.000616804 0.000189318 0.00043732 0.000192107 -0.000164847 8.63203e-05 -0.00050882 
-1.33103e-05 -0.000425113 -6.04631e-05 2.02787e-05 -9.43536e-05 0.000306087 -9.46905e-05 0.000257033 -0.000193292 0.000150374 
-0.000307819 0.000179845 -0.000164451 0.000354109 -2.37509e-05 0.000424154 -0.000219158 0.000253057 1.5595e-05 0.00015736 
-0.000162235 -0.00136587 0.00100528 0.000513701 -0.00118002 0.000480609 0.00141299 -0.00349724 0.00335294 -0.00109692 
-0.00271262 0.00204986 0.000571408 -0.001994 0.000614802 0.00151773 -0.000316857 -0.000609851 4.69772e-05 0.000514457 
0.00183712 0.000799676 -0.00119457 -0.00124277 -0.00388848 -0.00393585 -0.00450661 -0.00386938 -0.0023292 -0.00253395 
-0.00100192 -0.000773036 0.00115368 0.00226772 0.00259872 0.00223267 -0.000436187 -0.00355493 -0.00654546 -0.00575419 
-0.00134812 0.00373839 0.00505034 0.00102165 -0.00306545 -0.00253396 0.00161043 0.00234376 -0.000930273 -0.00228268 
0.000401191 0.00183934 -0.000382051 -0.000675133 0.000591836 2.50878e-05 -0.000986439 0.000499325 0.000999596 -0.000106274 
0.000123022 -0.000104033 -0.000803115 -0.000403848 -0.000192657 -0.000153695 0.000274795 0.000518951 0.000388493 0.000376815 
0.000210836 -0.000151196 -0.000174158 -0.000360031 -0.000494574 -0.000151959 -0.000434606 0.000154725 5.89354e-05 0.000131437 
0.000449118 1.92662e-05 0.00035329 -0.000157248 0.000146192 -0.000212595 -4.52361e-05 2.02118e-05 -0.000151197 0.000295857 
-0.0002517 0.000320071 -0.000452738 0.000271581 -0.000475343 0.000332945 -0.000327688 -0.000252416 -0.0001369 -4.66468e-05 
0.00152535 -0.00119347 -0.000498736 0.00215353 -0.00142314 -0.000451613 0.00294198 -0.0034258 0.000903451 0.00274247 
-0.00174921 -0.00117121 0.00201264 9.39643e-05 -0.00135412 0.000334686 0.000587676 -0.000223503 -0.000467028 -0.000395061 
-0.00129269 -0.00354766 -0.00145216 -0.000471429 0.000723967 0.00292906 0.00323255 0.004698 0.00485749 0.00364334 
0.00354003 0.00135561 0.00123826 -0.00084868 -0.00157308 -0.00141729 0.000167461 0.00372476 0.00626469 0.00740091 
0.00371618 -0.00178441 -0.005911 -0.00397666 0.00131325 0.00412866 0.000830477 -0.00288358 -0.0016085 0.00222758 
0.00158538 -0.00130825 -0.00109438 0.000909191 0.000173324 -0.000924508 0.000598365 0.000642554 -0.000809334 -0.000626036 
5.72396e-05 -0.000207302 0.000271305 0.000896252 0.0002789 0.000101147 0.00018905 -0.000512871 -0.00049218 -0.00023804 
-0.000518477 1.11732e-05 0.00028991 0.000113836 0.000497775 0.000319443 0.000122811 0.000223128 -0.000322082 5.5104e-05 
-0.000522182 -7.49433e-05 -0.000177973 -0.000142403 0.000160906 -7.16375e-05 0.000232898 -8.97895e-05 0.000120557 -7.28275e-05 
7.03146e-05 3.92813e-05 4.51947e-05 -6.68058e-05 3.19949e-05 -0.000192994 0.000832336 -0.000374398 0.000460617 -0.00176228 
0.00151931 0.000594497 -0.00317128 0.00235856 -0.0006363 -0.00271673 0.00368388 -0.000802974 -0.00264208 0.00149614 
0.00155877 -0.00184041 -0.000729669 0.00137165 1.70399e-05 -0.00039626 0.000513415 5.96337e-05 -0.000509876 -0.000919912 
-0.00174262 0.000967552 0.00301063 0.00312736 0.00263689 0.00092639 -0.00146624 -0.00221857 -0.00370407 -0.00448465 
-0.00376959 -0.00406645 -0.00141788 -0.0014899 0.000490698 9.32175e-05 -0.000664056 -0.00337368 -0.00669201 -0.00792056 
-0.00610383 -0.000239418 0.00520245 0.00641561 0.00167104 -0.00368353 -0.00365387 0.00111745 0.00348606 7.49384e-07 
-0.00264507 -0.000511292 0.00182453 -9.54832e-05 -0.000930723 0.00059881 0.000516439 -0.000879328 -0.000142606 0.000930052 
0.000192156 0.000121475 0.000276669 -0.000660089 -0.000672959 -0.000269412 -0.000172092 0.000101133 0.0004546 0.000405497 
0.000403972 0.000263922 -0.000137796 -0.000136629 -0.000350871 -0.000415364 -6.97015e-05 -0.000169313 6.07547e-05 0.000333957 
0.000103031 0.000460157 -0.000103969 0.000406295 -0.000324342 0.000153772 -0.000238883 -3.491e-05 -6.49059e-05 -0.000232679 
0.000137814 -0.000339664 0.000557546 -0.00044887 0.000763742 -0.00134395 0.000931366 -0.000602842 0.00173001 -0.00159611 
-0.0010763 0.00428674 -0.00352658 0.00182592 0.00271014 -0.00384065 0.000729077 0.00271642 -0.00143704 -0.00179167 
0.00142556 0.00119436 -0.00129474 -0.000209247 0.000805287 -0.000296639 -0.000295318 0.000400143 -3.2985e-05 -0.000255297 
0.000701292 0.00176556 -5.05792e-05 -0.00157763 -0.00346245 -0.00420096 -0.00354849 -0.00115942 0.000121009 0.00184157 
0.00281705 0.00255023 0.00332096 0.0011515 0.00146345 0.00020031 0.00178045 0.00337901 0.00651589 0.00843591 
0.00746897 0.00258687 -0.00397354 -0.00768351 -0.00494551 0.00142801 0.00510911 0.00184973 -0.00288127 -0.00280181 
0.00152872 0.00228809 -0.000860844 -0.00133269 0.000939798 0.00055281 -0.00118697 0.000222298 0.00095128 -0.000628379 
-0.000544037 -3.38283e-05 -0.000387839 5.84651e-06 0.000744664 0.000549983 0.0002834 0.000143678 -0.000183563 -0.000568497 
-0.00022971 -0.000391717 -0.000196242 0.000261601 7.34132e-05 0.00048547 0.000141916 5.95696e-05 0.000148147 -0.000506711 
-9.23986e-08 -0.000382437 -0.000249827 3.47224e-05 -0.00021192 0.000336959 -0.000141089 0.000414174 6.50917e-05 0.000175938 
0.000167073 -0.000407522 0.000339373 -0.00062126 0.00115619 -0.000801693 -0.000136583 -0.000951937 0.000947241 0.00211437 
-0.00559802 0.00503628 -0.00299845 -0.00277005 0.00383026 -0.000649447 -0.00303891 0.00147528 0.00202923 -0.000991435 
-0.00147806 0.00105274 0.000565112 -0.00103049 8.78023e-05 0.000799962 -0.000121871 -0.000386794 -0.000180212 -8.83874e-05 
0.000142815 -0.00169971 -0.0018721 -0.000949622 0.000449976 0.00259324 0.00443573 0.00527636 0.00416303 0.00288806 
0.00108032 -0.000196571 -0.000322159 -0.00131553 -0.000450196 -0.00110792 -0.00138422 -0.00357019 -0.00611844 -0.00826401 
-0.00822588 -0.00416779 0.00230211 0.0079831 0.007828 0.00199374 -0.00461509 -0.00470679 0.000465836 0.00395203 
0.000935974 -0.00232895 -0.00111906 0.00167762 0.000340034 -0.00138112 0.000379414 0.000970794 -0.000791937 -0.000614342 
0.000947278 0.000279555 -5.39751e-05 0.000626294 -0.00038696 -0.000785483 -0.000290689 -0.000494893 -1.78341e-05 0.000355392 
0.0003839 0.000213222 0.000411173 -2.82757e-05 -0.000240352 -3.47676e-05 -0.000470518 -6.47179e-05 5.9704e-05 2.19204e-05 
0.000444516 -7.08853e-06 0.000621617 -0.000277783 0.000393636 -0.000425491 0.000104168 -0.000561799 0.000102655 -0.000403581 
0.000458605 -0.000375638 0.000299574 -0.000796637 0.000346904 0.00125601 -0.000124906 -4.48509e-05 -0.00303558 0.00655603 
-0.00634274 0.0036021 0.00302541 -0.00400425 0.000701595 0.00345385 -0.00125716 -0.00238905 0.000694672 0.00156384 
-0.00071898 -0.00100451 0.00101375 0.000443511 -0.000790884 -8.01348e-05 0.000479005 2.29266e-05 -0.00039733 -0.000634246 
-0.00107666 -0.000946252 0.00140172 0.00244282 0.0023073 0.000944406 -0.00130819 -0.00376755 -0.00561799 -0.00634449 
-0.00571137 -0.00472258 -0.00293536 -0.00260235 -0.0011886 -0.000763036 0.000694405 0.00256216 0.00499789 0.00764535 
0.00772133 0.00527453 -0.00138344 -0.00742963 -0.0101719 -0.00538021 0.00192638 0.00642989 0.0028114 -0.00277833 
-0.0034616 0.000930793 0.00240756 -0.000643371 -0.00142902 0.000708962 0.000991965 -0.0010178 -0.000422991 0.00119413 
-0.000108274 -0.000696134 -0.00012666 -0.000323401 -0.000221569 0.000483682 0.000567334 0.000535719 0.000296812 -6.79364e-05 
-0.000233681 -0.000430575 -0.000186973 -0.000262164 0.000177223 -1.62375e-05 0.00033414 0.000199584 -8.01087e-05 6.91882e-05 
-0.000279263 -0.000376193 1.26969e-05 -0.000512823 0.000537759 -0.000533363 0.00104078 -0.000676139 0.000947085 -0.000944477 
0.000872518 -0.000351005 0.000878099 -0.000252178 -0.00189227 0.000725467 -0.000254386 0.00295383 -0.00655055 0.00680442 
-0.00335439 -0.00352365 0.00453373 -0.000772339 -0.00389524 0.000718383 0.00271936 -0.000393191 -0.0016302 0.000468121 
0.00131761 -0.000672831 -0.000965226 0.000611607 0.000421678 -0.000241147 -1.23844e-05 0.000150826 -0.000190859 -0.000471674 
-0.00039162 0.00089805 0.00182847 -3.54837e-05 -0.00200176 -0.00333729 -0.00304799 -0.000717378 0.00192628 0.00474174 
0.00684248 0.0073167 0.00773886 0.00586033 0.00555422 0.00336279 0.00218921 -0.000556555 -0.00301729 -0.00567058 
-0.00666941 -0.004641 0.000594002 0.00741423 0.011344 0.00904922 0.00115391 -0.00586302 -0.00588538 -0.000186566 
0.00417756 0.00167824 -0.00217953 -0.00138531 0.00170797 0.000750932 -0.00159115 9.60163e-05 0.00109701 -0.00039898 
-0.000872139 0.000390386 0.000415827 0.000159241 0.000499107 3.89529e-05 -0.000738077 -0.000346217 -0.000532905 -0.000327187 
0.000173 0.000251239 0.000354037 8.40575e-05 0.000267556 -0.000285865 6.19702e-05 -0.000305098 4.57763e-05 -9.20185e-05 
0.000259053 0.000211582 0.000147594 5.01157e-05 7.47366e-05 -0.000418241 0.000235199 -0.000409634 0.000507259 -0.000531036 
-0.0002817 -0.000408664 -0.000201168 0.00259139 -0.0013527 0.00027872 -0.00224445 0.00609336 -0.00681453 0.00305887 
0.00366712 -0.00488732 0.000250067 0.00454772 -0.000236528 -0.00267736 -0.000129035 0.00189452 -0.000327943 -0.00146035 
0.000160334 0.0012606 -0.000241811 -0.000602036 0.000192689 0.000168343 -0.00011322 0.000101022 -2.36679e-05 -0.000302091 
-3.34416e-06 0.000521783 -0.000240157 -0.00192538 -0.00100207 0.000426772 0.00309687 0.00458443 0.00320167 0.00123758 
-0.00253209 -0.00521581 -0.00717316 -0.00861607 -0.00764376 -0.00732837 -0.00470283 -0.00310043 0.000566999 0.00251621 
0.00470755 0.00291231 -0.000845982 -0.00781273 -0.0120961 -0.012007 -0.00470039 0.00391104 0.00796012 0.00360689 
-0.00265 -0.00365628 0.0002248 0.00252103 -0.000293253 -0.00170085 0.00026939 0.00133633 -0.000722064 -0.000898618 
0.00101719 0.000306916 -0.00045249 0.000121692 -0.000719325 -0.000351284 0.000317525 0.000459581 0.00049396 0.000485204 
0.000183205 -0.000202987 -0.000199737 -0.000233546 -0.000277858 8.41475e-05 4.81033e-05 -0.000105139 0.000388989 -0.000385128 
0.000227563 -0.000318527 5.2985e-05 -4.39266e-05 -4.17587e-05 0.000242133 -0.000505904 0.000516571 -0.000552395 0.00173308 
-0.000964048 0.0013816 -0.0038469 0.00256179 -0.000571855 0.00166493 -0.00588028 0.00706467 -0.00358474 -0.00307109 
0.00463184 0.00104397 -0.00526807 -5.00116e-05 0.00234846 0.000724206 -0.00219485 -1.24147e-05 0.00164559 0.000271582 
-0.00120225 -0.000214469 0.000722157 -0.0001043 -0.000288999 0.000259585 0.000109003 -0.000196916 -7.99498e-05 -0.000217642 
-0.000145084 -7.33514e-05 -0.000632859 5.65227e-05 0.00181978 0.00145114 0.00128588 -0.00193113 -0.00456981 -0.0051819 
-0.00481877 -0.00107334 0.00149631 0.00491053 0.00662124 0.00731096 0.0068062 0.0047707 0.00284043 -0.000311697 
-0.00122979 -0.00138438 0.00272246 0.00778818 0.0134588 0.0137431 0.00809898 -0.00150267 -0.00833792 -0.00714094 
-0.000541993 0.00437842 0.00192262 -0.00181622 -0.00142818 0.00126714 0.00109495 -0.00113837 -0.000301798 0.000880101 
8.30503e-05 -0.000562767 -0.000192485 3.89668e-05 0.000205824 0.000692624 0.000124372 -0.000179422 -0.000547819 -0.000640087 
-0.000108032 -0.000219935 4.43205e-05 0.000567734 -0.000123416 0.000492073 -0.000156575 8.7565e-05 -6.69796e-05 -1.52249e-05 
6.14199e-06 -0.000131752 0.000120659 5.92459e-05 -4.58141e-05 0.000663288 -0.000706058 0.000752039 -0.00233834 0.0015709 
-0.00168424 0.00422541 -0.00303975 5.57842e-05 -0.000443055 0.00507134 -0.00698101 0.00430395 0.00263461 -0.00440005 
-0.00216726 0.00533636 0.000546461 -0.00230243 -0.00103828 0.00214413 0.000859071 -0.00191269 -0.000592611 0.000948748 
0.000582409 -0.000695739 -0.000111996 0.000523077 -0.000176355 -0.000272308 0.000236613 0.000148122 -0.000215198 -0.000331014 
-0.000147395 -0.000175096 0.000136875 0.00136098 0.000353957 -0.00142632 -0.00188387 -0.00283399 0.000239169 0.00304175 
0.0058677 0.00734484 0.00535925 0.00349107 -0.00037578 -0.00209981 -0.00417075 -0.00379543 -0.00303903 -0.00147139 
-0.000268407 -0.000869818 -0.00364645 -0.00878137 -0.0136276 -0.0150497 -0.0105735 -0.000705094 0.00797289 0.00997913 
0.00422149 -0.00262697 -0.00386981 -0.000243423 0.00239471 -3.99979e-05 -0.00144026 2.67275e-06 0.000905172 -0.000332363 
-0.000680792 0.000320733 0.000363188 -0.000124846 0.000476804 -0.000418656 -0.000784843 0.000111047 0.000142406 0.000630961 
0.000368135 0.000256028 -6.30852e-05 -0.00012185 -0.000451839 -3.56168e-05 -0.000537651 0.000463253 -0.000538736 0.000742532 
-0.000464514 0.000611961 -0.000735984 0.000438883 -0.0011605 0.000943431 -0.000665235 0.00230732 -0.00130542 0.000772395 
-0.00319242 0.00211833 0.00182332 -0.001989 -0.00297919 0.0060655 -0.00439839 -0.00307827 0.00468818 0.00248285 
-0.00475384 -0.00124112 0.00251961 0.00128871 -0.00179133 -0.00189378 0.0018187 0.0011192 -0.000798059 -0.000686749 
0.00047911 0.000476659 -0.000637922 -7.53165e-05 0.000415071 -7.25557e-06 -0.000173278 7.76606e-05 4.20402e-05 -0.00032079 
-0.000297249 -0.000259815 0.00089479 0.000512584 -0.00156668 -0.00108444 0.000111477 0.00193826 0.00389285 0.00195516 
-0.000426144 -0.00482732 -0.00779283 -0.00884421 -0.00821204 -0.00566806 -0.00378771 -0.00156987 -0.000884992 -0.000551116 
-0.000308501 0.000822224 0.00381207 0.00837075 0.0133008 0.0150683 0.0113841 0.00224717 -0.00751782 -0.0124177 
-0.00811137 -0.000346201 0.00442171 0.00217535 -0.00113725 -0.00137082 0.000568871 0.000944116 -0.00056131 -0.000318579 
0.000747791 -0.000270323 0.000187563 -0.000126466 -0.00056507 -5.98878e-05 0.000562437 0.000248822 0.000158827 1.17086e-05 
-0.00105418 0.000207964 -0.000276532 0.000132542 0.000353676 0.00028364 -6.37305e-06 0.000532617 -0.000767291 0.000657641 
-0.00106104 0.00134022 -0.00103831 0.00187426 -0.00163144 0.00106138 -0.00264758 0.00148238 -0.000106422 0.00226452 
-0.00138327 -0.00334896 0.00409602 0.00105957 -0.00559975 0.00472313 0.00330573 -0.00456923 -0.00299941 0.00485634 
0.00128613 -0.00215928 -0.00209746 0.00146527 0.00249038 -0.000987546 -0.00190819 0.000753092 0.000747737 -0.00020932 
-0.000722279 0.000457006 0.000443161 -0.000347354 -0.000169838 0.000147052 9.16302e-05 -8.03365e-05 8.20817e-06 -0.000241427 
-0.000631915 0.000402256 0.00113857 -0.000815795 -0.000955646 0.000777445 0.00130274 0.00159438 -0.00108351 -0.00373537 
-0.00417036 -0.00270126 0.00187184 0.00588817 0.00988858 0.0110455 0.0111681 0.00945346 0.00821275 0.00597066 
0.00479977 0.00186856 -0.00125145 -0.00657921 -0.0107975 -0.0135606 -0.0103864 -0.00242764 0.00834093 0.0140221 
0.0122891 0.00397174 -0.00330123 -0.00411565 -0.000683347 0.00154378 0.000213764 -0.000517906 0.000222257 -0.000154465 
-4.21897e-05 -0.000134789 0.000101325 -0.000398288 0.000396225 0.000618192 -0.000368065 -9.7024e-05 -0.00034976 -0.000549776 
0.000611351 0.000450009 -0.000321736 0.000525121 -0.000649715 0.000163468 -0.000304136 4.75865e-05 -0.000209633 0.000367565 
-0.000920579 0.000657744 -0.0014613 0.00149117 -0.000573494 0.0022032 -0.00127564 -0.000852565 -0.00126151 0.00101498 
0.00403913 -0.00530712 -1.65634e-05 0.00600198 -0.00568425 -0.00266369 0.00361546 0.00450931 -0.00616171 -0.000694605 
0.00121742 0.00300798 -0.000812464 -0.00270751 -0.000105701 0.00240463 -0.000305361 -0.00114126 0.000118945 0.000752377 
2.56382e-05 -0.000633734 0.000116568 0.000308362 -1.86337e-05 -0.000128064 0.000111994 2.10871e-10 -7.91972e-05 -0.000140549 
-0.000303748 0.00123359 6.76217e-05 -0.0012553 0.000480732 0.000690005 0.000245799 -0.000937321 -0.00265137 -0.000444688 
0.00212658 0.00530802 0.00541264 0.00254102 -0.00188968 -0.00741059 -0.0107859 -0.0134994 -0.0130889 -0.0128652 
-0.010029 -0.00754927 -0.00288032 0.00183352 0.00718204 0.00961243 0.00764581 0.000401926 -0.00951982 -0.0165996 
-0.0159993 -0.00760791 0.00119603 0.00507651 0.00294409 -7.59927e-05 -0.000686357 -0.00037484 -0.000116567 6.05903e-05 
0.000427902 0.000132959 -0.00040535 0.000357032 0.000550665 -0.000850212 -0.000308816 0.000587115 -0.000140283 0.000346726 