# vtk DataFile Version 2.0
Titre
ASCII
DATASET STRUCTURED_POINTS
DIMENSIONS 100 100 1
ORIGIN 0.0 0.0 0.0
SPACING 0.1 0.1 0.0
POINT_DATA 10000 
SCALARS rho float
LOOKUP_TABLE default
-0.00105227 0.000998496 0.00142079 0.000994675 0.00156004 -0.000208854 -0.00174861 3.78228e-05 0.00196343 0.000974514 
-2.45464e-05 -0.000115414 0.000592409 -0.000140104 -0.000914222 -7.57764e-05 0.00102786 0.000706411 -0.000638787 -0.000561391 
0.00028851 0.000576987 3.56093e-05 -0.000351118 -0.000269892 0.000192729 0.000451452 -7.7691e-06 -0.000392427 -0.000248075 
0.000449964 0.00124988 0.00168078 0.0011962 0.000164607 -0.00124476 -0.00245436 -0.0031183 -0.00305206 -0.00227142 
-0.000923904 0.000616639 0.00209862 0.0031657 0.0036715 0.00357647 0.00289934 0.00187347 0.000596409 -0.000651226 
-0.00178662 -0.00264583 -0.00318808 -0.0034059 -0.00329158 -0.00294863 -0.00238758 -0.00173167 -0.000994024 -0.000242781 
0.000505576 0.00122891 0.00189553 0.00248565 0.00298664 0.00341388 0.00381368 0.00425009 0.00474624 0.00533172 
0.00595384 0.00658277 0.00710158 0.00744606 0.00747592 0.00718451 0.006536 0.00566686 0.00464907 0.00361259 
0.00257977 0.00159276 0.000651543 -0.000177108 -0.000786326 -0.00106627 -0.00092846 -0.000391382 0.000372242 0.00114197 
0.00162067 0.0018057 0.00163063 0.00140805 0.00127876 0.000663181 0.000199703 -0.000348392 -0.00116864 0.0016605 
-0.00125875 0.000894811 -0.000730872 -0.00318919 -0.00311884 -0.00368677 -0.000619735 0.00318995 0.00192426 8.26677e-05 
-0.00118299 -1.78275e-05 0.000964736 -0.000215033 -0.000252239 0.000399419 0.000797034 -0.000339825 -0.000325644 0.000436216 
0.000411178 0.00012679 0.000161556 0.000159356 -0.000199981 -8.23972e-05 -0.000328369 -0.000131553 0.000610805 0.00133549 
0.00147417 0.00110305 -0.000312776 -0.00190412 -0.00312183 -0.00348971 -0.00261517 -0.000749251 0.00142412 0.00348398 
0.00453189 0.00454857 0.00338029 0.00144195 -0.000806205 -0.00289376 -0.00440739 -0.00513384 -0.0050441 -0.00421158 
-0.0028691 -0.00122669 0.000474208 0.0020448 0.00336303 0.00434335 0.00496719 0.00524888 0.00522201 0.00493569 
0.00446383 0.00381776 0.00310796 0.00229306 0.00147552 0.000610321 -0.000241015 -0.00109004 -0.00189239 -0.00265261 
-0.00331037 -0.00385923 -0.00425733 -0.00449859 -0.00457707 -0.00448363 -0.00423164 -0.00381504 -0.00321598 -0.00241835 
-0.00144044 -0.00033371 0.000763078 0.00165885 0.00218899 0.00225283 0.00186097 0.00115987 0.000424225 -0.000143644 
-0.000320682 -0.000201373 0.000120504 0.000518967 0.00132029 0.00244061 0.00219037 0.00255616 -0.00135785 0.000211258 
-0.000553225 0.00339651 -0.000506332 0.000647648 0.00221095 0.00188995 0.0048373 0.00167868 -0.00147729 -0.00154294 
-2.51602e-05 0.00205779 2.33925e-05 -0.000881209 0.000214938 0.000968982 -0.000103343 -0.000753585 0.000566557 0.000361253 
-0.000126755 -8.33235e-05 0.000157304 -0.000497627 -0.000318934 -0.000115327 -3.98697e-05 0.00081664 0.00130482 0.000937969 
0.00023403 -0.000836716 -0.00195943 -0.00185103 -0.0011657 0.000295837 0.00181206 0.00253067 0.00229599 0.0010542 
-0.000911506 -0.00269502 -0.00403319 -0.00429216 -0.00349349 -0.00189957 0.000305271 0.00238731 0.00424279 0.00533164 
0.00570999 0.00530821 0.00424111 0.00279471 0.00102041 -0.000696852 -0.00238549 -0.00377555 -0.00490131 -0.00569429 
-0.00613843 -0.00630964 -0.00616745 -0.00581768 -0.00523963 -0.00453598 -0.00367841 -0.00279619 -0.00181948 -0.00090657 
5.76383e-06 0.00078808 0.0015014 0.00204311 0.00245634 0.00266063 0.00270373 0.00251464 0.00215575 0.00160376 
0.000966982 0.000285315 -0.000266991 -0.000654475 -0.000762969 -0.000606596 -0.000175068 0.000342509 0.000809413 0.001011 
0.000931645 0.000785228 0.00058094 0.000120818 -0.000452847 0.000141317 3.49891e-05 0.00311537 -4.8037e-05 0.00131432 
0.000692118 0.00141951 -0.00383122 -0.000903739 -0.00354289 -0.00219211 -0.000921597 -0.00284489 -9.35588e-05 0.00133947 
0.00219259 3.39152e-05 -0.00177716 0.000307697 0.00123613 0.000163943 -0.00110178 0.000502281 0.000732445 -0.00040275 
-0.000138047 0.000337459 -0.000193771 -0.000509896 0.000303103 9.34075e-06 0.000699088 0.00120947 0.000714795 -4.99612e-05 
-0.000375971 -0.00117021 -0.000784074 -0.000113536 0.000339322 0.000700826 0.000318505 -0.000628412 -0.00124471 -0.00180882 
-0.00131698 -0.000264794 0.00121337 0.00274027 0.00365966 0.00386279 0.00316944 0.0016817 -0.000165987 -0.00221574 
-0.0039224 -0.0051803 -0.00575946 -0.00563415 -0.00492834 -0.00367999 -0.0021702 -0.000457449 0.00118752 0.00275406 
0.00401839 0.00505906 0.00570538 0.00607339 0.00610755 0.00585619 0.00538901 0.00468743 0.00388175 0.00295411 
0.00204093 0.0010865 0.000252528 -0.000523794 -0.00110101 -0.00153965 -0.00172247 -0.00171846 -0.00144173 -0.000974795 
-0.00031492 0.000392817 0.00106483 0.00152756 0.00164062 0.00134864 0.000770787 0.000176837 -0.000175341 -0.000215937 
-0.000207992 -0.00020618 0.000125451 0.000694924 0.000373697 0.0014811 -0.00108659 0.0032218 0.000704594 0.000690092 
0.000711631 0.000247588 -0.00125064 0.00192102 0.00125584 0.00532813 0.00420646 0.00277364 0.00215107 -0.000134364 
-0.000983013 -0.00178627 0.000496714 0.00159385 -2.6604e-05 -0.00126701 2.37383e-05 0.00106274 -0.000693037 -0.000441996 
0.000394657 -3.67998e-05 -0.000872654 0.000141678 0.000178315 0.000124378 0.00110953 0.000607286 -0.000131797 -0.000116401 
-0.000451595 -0.000695019 0.000134682 -7.1242e-05 3.25747e-05 3.60838e-06 -0.000366722 -0.000136416 0.000276918 0.000640516 
0.00127207 0.00109012 0.00066194 -0.000285323 -0.00157419 -0.00246149 -0.00323404 -0.00308611 -0.00247058 -0.00121142 
0.000403086 0.00197209 0.00351627 0.00447567 0.00510159 0.00502934 0.0045302 0.00358551 0.00230235 0.000960313 
-0.000523058 -0.0017646 -0.00293074 -0.00372155 -0.00429569 -0.00446075 -0.00439614 -0.00398141 -0.00341168 -0.00265088 
-0.00180567 -0.000937727 -0.000115072 0.00061553 0.00119342 0.0015928 0.00178684 0.00175926 0.00149805 0.00106866 
0.000528482 2.24626e-05 -0.00035395 -0.000407491 -0.000192982 0.000198096 0.000461177 0.000447505 0.000231826 0.000187414 
0.000297255 9.52322e-05 -0.000477372 -0.000173331 -0.00154398 0.00137483 -0.00274465 0.000569764 0.00158978 0.000776179 
0.000511781 0.000572852 -0.0023852 -9.70703e-06 -0.00171326 -0.000717537 -0.00397916 -0.00441561 -0.0029495 -0.00103201 
0.000872171 0.0012751 0.00115726 -0.000558271 -0.00118711 -3.08514e-05 0.00116383 -0.000416747 -0.000714374 0.000702516 
0.000194118 -0.000804479 -0.000155064 0.000694447 -0.00018562 0.000864293 0.000850975 -0.000116288 -2.5988e-05 0.00015653 
-0.000658324 3.19985e-05 9.79586e-05 -0.000278499 0.000138537 -4.22248e-05 -0.000156254 0.000292992 -0.000124945 -4.96573e-05 
-0.000379421 -0.000759662 -0.000642874 -0.000544828 9.62618e-05 0.000933824 0.00161328 0.00236192 0.00239754 0.00220967 
0.00140807 0.000291884 -0.000892263 -0.00220681 -0.00308592 -0.0038265 -0.00395519 -0.00380557 -0.00317243 -0.0023208 
-0.00126151 -0.000138741 0.000891522 0.00185628 0.00248328 0.00298968 0.00307747 0.00304951 0.0026826 0.0022381 
0.00159043 0.000990282 0.000306186 -0.000222784 -0.000721653 -0.00100259 -0.00116631 -0.00104757 -0.000788115 -0.000312027 
0.000186008 0.000699728 0.000958378 0.00102779 0.000889576 0.000751555 0.000673187 0.000518592 3.99279e-05 -0.000567193 
-0.000619854 -0.000147956 -0.00048066 0.00105451 -0.00203537 0.00270283 -0.00037811 -0.000914952 0.000360824 0.00104025 
0.00138323 -0.00171987 -0.00231694 0.00227483 0.000705968 0.00409279 0.00194489 0.00402159 0.00469903 0.00283018 
0.000413477 -0.00177505 -0.00151549 -0.000376906 0.000462909 0.000755733 -0.000337043 -0.000911268 0.000597816 0.000202317 
-0.000921879 -0.000536505 0.000634052 -0.000165502 5.38037e-05 0.00112157 -9.98278e-05 -0.000138015 0.000360498 -0.000400917 
-0.000518184 0.000430827 -0.00042304 -1.96332e-06 0.000216875 -0.000235356 0.000158226 0.000162089 -0.000148585 0.000356827 
6.12922e-05 0.000411567 0.000598041 0.000385128 0.000503204 -0.000190753 -0.000599019 -0.00127686 -0.00183221 -0.00192071 
-0.00195113 -0.00127184 -0.000585514 0.000484082 0.00147009 0.00229495 0.00298054 0.00311913 0.00315514 0.00259448 
0.00201286 0.00107808 0.000218996 -0.000663957 -0.00138405 -0.00191494 -0.00225514 -0.00232732 -0.002251 -0.00194075 
-0.001591 -0.00108731 -0.000640087 -0.000131633 0.000245234 0.000581705 0.000697802 0.000692231 0.000487428 0.000210419 
-9.18388e-05 -0.000221556 -0.000179958 -2.19675e-05 0.000125274 0.000129169 0.000210939 0.000497833 0.000815625 0.000471298 
-0.000324099 -0.000104734 -0.00191219 0.00137989 -0.00400275 -0.000885816 -5.19706e-05 -0.000827741 -0.00071631 5.10887e-05 
-0.000840095 -0.00348565 0.000827675 0.00179361 -0.000394978 0.000355418 -0.0047688 -0.00261346 -0.00443906 -0.00442706 
-0.00256078 -0.000184475 0.00250464 0.00141326 -0.000345726 -0.000653482 -0.000541496 0.000630525 0.000323968 -0.000778963 
-0.000337165 0.000513045 0.000231011 -0.000335169 0.00111279 0.000360155 -0.000441146 0.000349917 -8.69379e-05 -0.000796292 
0.000423716 0.000122429 -0.000383124 0.000540064 -3.48871e-05 -0.000117586 0.000412748 -0.000294187 5.48067e-05 2.55181e-06 
-0.0003657 -5.50943e-05 -0.000474424 -0.000481602 -0.00035561 -0.000531279 0.000106854 0.000239545 0.000889677 0.00128976 
0.00143583 0.00163833 0.0011261 0.000829992 -4.29319e-05 -0.000680012 -0.00141718 -0.00196499 -0.0021967 -0.00231844 
-0.00198253 -0.00167696 -0.000995 -0.000503886 0.000194724 0.000608192 0.00104252 0.00118662 0.00127404 0.00111763 
0.000912496 0.000538956 0.000160223 -0.000285065 -0.000635259 -0.000919236 -0.00100011 -0.000972353 -0.000732768 -0.000499535 
-0.000251799 -0.000128175 5.39582e-05 0.000252777 0.000585931 0.000643417 0.000301265 -0.000222484 -0.000201815 0.000205477 
-0.000487028 0.00115541 -0.00264805 0.00307489 -0.000174269 -0.00124902 -0.000471745 -0.000472978 -0.00068031 -0.000953371 
-0.000881969 0.000411394 0.00227299 0.000354824 0.000166482 2.28417e-05 -0.000654972 0.00436289 0.00275114 0.0044977 
0.00317954 0.00166585 -0.000326437 -0.00304158 -0.00125974 0.000540778 0.000804018 0.000140631 -0.000907579 -0.000188847 
0.000136472 -7.32453e-05 -0.000432869 0.000458917 0.00062532 -0.000716633 0.000108219 0.000260243 -0.00057594 0.000142976 
0.000736948 -0.000594057 0.000244649 0.000298571 -0.00054892 0.000128256 -7.97828e-05 -0.000474266 0.000318993 -0.000266124 
0.0001027 0.000310276 -1.35967e-05 0.000549962 0.000236536 0.000399641 0.000388916 -2.4704e-05 1.64e-05 -0.000565916 
-0.000640272 -0.000897804 -0.00095701 -0.000686919 -0.000578713 4.09168e-05 0.000268962 0.000840776 0.00100247 0.00121778 
0.0011851 0.000998741 0.000777426 0.000344534 6.05887e-05 -0.000363499 -0.000540838 -0.000810412 -0.000781389 -0.000840188 
-0.000604246 -0.000469537 -0.000109894 7.83015e-05 0.00035346 0.000389387 0.000436443 0.000223622 9.35952e-05 -0.000126442 
-0.000230875 -0.000443423 -0.000659402 -0.000895436 -0.000757478 -0.000111539 0.000554693 0.000537712 -4.72079e-05 0.00047566 
-0.00154635 0.0023947 -0.00397294 -0.000906701 -9.18904e-06 -0.00107407 -0.00118575 -0.000919172 -0.000635236 -0.000230085 
0.000395819 -0.000805526 -0.00126976 -0.000789924 -0.000376893 -0.00107394 -0.000485887 -8.17905e-05 -0.00393977 -0.0031641 
-0.0046716 -0.00182756 -0.0004898 0.00112042 0.00303826 0.000936015 -0.000563269 -0.00103199 -1.73142e-05 0.000307877 
-0.000420628 1.56408e-06 0.00040182 0.000646674 -0.000331956 -2.63607e-05 0.000607933 -0.000305267 -0.000181737 0.000626828 
-0.000419682 -0.000486205 0.000585523 -0.000506935 -0.000248241 0.000478234 -0.00031807 0.000336459 0.00035561 -0.000173507 
0.000437162 -0.000118422 -0.000114173 7.27199e-05 -0.00050606 -3.97747e-05 -0.000432952 -0.000223323 -1.94158e-05 -0.000108117 
0.000426893 0.000236387 0.000584769 0.00039237 0.000284437 0.000113198 -0.000311029 -0.000415499 -0.000841198 -0.000794945 
-0.000998136 -0.000753151 -0.000669079 -0.0003125 -8.61252e-05 0.000246604 0.000467378 0.000645527 0.000752639 0.0007179 
0.000662246 0.000455087 0.000305421 0.000102605 -1.35315e-05 -0.000116712 -0.000104245 -0.000136297 -0.000153664 -0.000160624 
-7.50894e-05 0.000161502 0.000333645 0.00021109 -0.000470018 -0.000970021 -0.000774813 -5.86898e-05 -0.000670372 0.00127179 
-0.00324248 0.00337553 0.000219257 -0.000848909 0.000169524 -2.52452e-05 -0.000645902 -0.000984302 -0.00120761 -0.000885218 
-0.000839124 -0.00283316 0.00113819 0.00233583 0.000722488 0.000188896 0.000622613 0.000418932 0.000529269 0.00287173 
0.00305994 0.00432653 0.000658047 -0.00081473 -0.00210174 -0.00266368 -0.000691941 0.000329863 0.000661037 -0.000573268 
-0.000134298 0.000472096 1.04171e-06 -0.000280913 -0.000106367 0.000429189 -0.000288777 -0.000400001 0.000373989 -5.20004e-05 
-0.000587257 0.000607945 0.000138182 -0.000479908 0.000648579 0.000119813 -0.000266487 0.000450189 -0.000444408 -0.000122077 
5.50995e-05 -0.000513262 0.000149754 -0.000234314 -9.49349e-05 0.00021449 -0.00013174 0.000366006 2.54517e-05 0.000144904 
8.39781e-05 -0.000216705 -2.63199e-05 -0.000400838 -9.33428e-05 -0.000246511 5.86911e-05 0.000190489 0.00038588 0.000659032 
0.000653423 0.000861 0.000677263 0.000779933 0.000473933 0.000500729 0.000193214 0.000209903 2.35565e-06 7.26195e-05 
-6.14824e-06 0.000111258 6.39372e-05 0.000216207 0.000190453 0.000326528 0.000356605 0.000531178 0.000490092 0.000387925 
-3.96084e-05 -0.000336421 -0.000367841 0.000210552 0.000517803 0.000137605 -0.000637269 3.33906e-07 -0.00194809 0.00292504 
-0.00409641 -0.000914913 0.000307765 -0.000806842 -0.00073732 -0.000245101 -0.00029487 -0.000509581 -0.00073018 -0.00128333 
-0.00163579 0.000138022 0.00399214 -0.000156006 -0.00262167 -0.0018151 -0.00111449 -0.000434082 -0.00061391 -0.00102932 
-0.00176586 -0.00217617 -0.00291061 0.000630194 0.00227013 0.00303882 0.00206425 0.000302766 -0.000539909 -0.000688067 
0.000386562 -0.000145174 -0.000198722 0.000352887 0.000375499 -0.00026854 -0.000251273 0.000410419 9.9118e-05 -0.000441044 
0.000329372 0.000351269 -0.000617376 0.000124911 0.000322379 -0.000684776 9.43506e-05 -5.24422e-05 -0.000397941 0.000387916 
-0.000120543 8.35171e-06 0.000354353 -0.000199665 0.00043299 7.35594e-05 0.000143208 0.000308187 -0.000131858 0.000240567 
-0.000180863 2.68786e-05 -2.34612e-05 -7.9939e-05 0.000159794 -6.07468e-05 0.00022184 -5.65228e-05 0.000136779 -9.01597e-05 
-8.54355e-06 -0.000147852 -0.000182643 -0.000199001 -0.000301124 -0.000224644 -0.000349134 -0.000212098 -0.00032324 -0.000155401 
-0.000204455 1.12405e-05 -5.43859e-05 0.000111792 -1.76484e-05 -1.08332e-05 -0.00021322 -0.000150684 7.50677e-06 0.000463064 
0.000789085 0.00069549 3.39271e-05 -0.000375684 -2.825e-05 0.00053304 -0.000337287 0.00135968 -0.00413532 0.00305724 
-0.000303258 -0.00163437 -0.000179091 0.000159747 -0.000195896 -0.000204947 -0.000133719 -0.000346028 -0.000484372 -0.000668989 
-0.000444279 0.00199056 0.000737507 -0.00381228 -0.00119172 0.0014125 0.00231838 0.00203954 0.000411367 0.000781327 
0.00154651 0.00134341 0.00122703 0.000956458 -0.00194683 -0.00365958 -0.00375096 -0.00182375 -0.000516472 0.000124607 
0.000356742 8.57531e-05 0.000419476 9.20649e-05 -0.000501619 -0.000129917 0.000478958 -2.487e-05 -0.000417773 0.000247489 
0.000362866 -0.000500359 -3.9213e-05 0.000500143 -0.000300761 -9.17418e-05 0.000532609 -0.000203088 0.000318775 0.000264651 
-0.000261871 0.000343125 -8.63951e-05 2.73529e-05 0.000188613 -0.000347877 3.37612e-05 -0.000397865 -0.000284034 -0.000189751 
-0.000364145 5.55313e-05 -0.000230684 0.000150762 -5.74391e-05 8.34279e-05 7.03781e-05 -7.8105e-05 7.54957e-05 -0.000224155 
3.14997e-05 -0.000255425 -2.02226e-07 -0.000204984 7.02133e-06 -0.000120323 -2.13298e-05 -0.000116262 -0.000149184 -0.00031914 
-0.000438865 -0.000561515 -0.000609946 -0.000547437 -0.000361449 -0.000139763 -8.65545e-06 -0.000169087 -0.000433031 -0.000709759 
-0.000352375 0.000374598 0.000826424 0.000366863 -0.000217242 0.0005803 -0.00127485 0.00436987 -0.00355491 -0.000494791 
0.000653503 -0.00112698 -0.00156584 -0.00085894 -0.000355699 -0.000210616 -4.85037e-05 1.16661e-05 -0.000172062 -0.00024502 
0.000147548 0.000403727 -0.00156677 -0.000862644 0.00273017 0.00168157 -0.000107404 -0.00230384 -0.00272258 -0.000551506 
-0.000418597 -0.00108281 -0.00075618 0.000112339 0.00139945 0.00345006 0.00469628 0.00369124 0.00132079 0.000478482 
0.000341263 -0.000145777 -0.000555206 -0.000328148 0.000232866 0.000547637 -0.000312031 -0.000426252 0.00023118 0.000284899 
-0.000587505 -0.000100221 0.000416931 -0.000218762 -0.000350378 0.000407028 -0.000168128 -0.000200173 0.000109526 -0.000418197 
-0.000111054 5.71103e-05 -0.000427482 7.50387e-05 -0.000381366 -0.00015193 0.000107625 -0.000164867 0.000453441 9.48824e-05 
0.000391503 0.000308377 0.000105138 0.000361795 -9.5046e-05 0.000301793 -2.68008e-05 0.000283572 0.000178437 0.000237089 
0.00028185 0.000108994 0.000211347 -0.000154692 -2.55013e-05 -0.000371211 -0.00021792 -0.000388777 -6.15245e-05 -0.000100341 
0.000241186 0.000160386 0.000274769 -4.24901e-05 -0.000149765 -0.000350997 -8.82674e-05 0.000123252 0.000423856 -2.01226e-05 
-0.000691741 -0.000944628 -0.000259521 0.000513872 -0.000181009 0.00178638 -0.00423229 0.00403568 0.000653342 -0.00110027 
0.000296559 0.000450274 -0.000475335 -0.000981464 -0.000718911 -0.000356604 -0.000141017 -3.39072e-05 1.01704e-05 -0.000139192 
-0.000389064 -0.00034109 0.000596849 0.00162958 0.000375397 -0.00202395 -0.00179265 -0.000838859 0.00200826 0.00327014 
0.00154214 0.000580147 0.000370573 6.97521e-05 -0.00164665 -0.00372411 -0.00521729 -0.00563726 -0.00359613 -0.00127625 
-0.00068244 -0.00090551 0.000378446 0.00106314 9.34461e-05 -0.000734134 -0.000309184 0.000703543 0.000137299 -0.000354231 
2.48242e-05 0.00070858 -0.000200217 -0.000126818 0.000388729 0.000149586 -0.000346543 0.000286864 -8.04218e-05 6.38358e-05 
0.000373777 -9.65521e-05 0.000221334 0.000272804 8.08432e-05 0.000560465 8.95839e-05 0.000229568 0.000108946 -0.00027529 
3.49202e-05 -0.000410326 -2.19973e-05 -0.000160143 -6.69596e-05 0.00010372 -0.000193271 0.000104365 -0.00031256 -1.04367e-05 
-0.000347313 -9.94268e-05 -0.000140391 2.82558e-05 0.000130495 0.000229941 0.000294061 0.000170424 0.000203733 1.52251e-05 
0.000142338 0.000118385 0.000446244 0.000559121 0.00061267 0.000283988 -0.00011402 -0.000402398 -5.27387e-05 0.000614466 
0.000599411 -0.000174163 -0.001003 -0.000205572 -0.00201539 0.00456613 -0.00391175 -0.000292297 0.00180719 0.000208206 
-0.000438012 -4.64783e-05 9.25469e-05 -0.000387696 -0.000724283 -0.000660835 -0.000325496 -3.18848e-05 0.0001114 4.61454e-05 
-0.000590234 0.00121695 0.00178497 -0.00102001 -0.00240489 -0.000208571 0.00178 0.00207223 0.00154637 -0.00120728 
-0.00278707 -0.00223338 -0.000828259 0.000532242 0.000996903 0.00339214 0.00556705 0.00657796 0.00572797 0.00312126 
0.00142367 0.00120466 0.00145322 -0.000941848 -0.00136801 0.000372693 0.00134204 -0.000281857 -0.000837838 0.000285988 
0.000386247 -0.000475593 -0.000440143 0.000306834 -0.000206706 -0.000440341 0.000106876 8.50291e-05 -0.000152472 0.000148526 
-0.000180508 -0.000156005 0.000231934 -0.000360282 -3.36254e-05 -0.000226449 -0.000544043 3.21871e-05 -0.000435269 0.000128622 
0.000112535 5.7282e-06 0.000409781 -0.000117872 0.000300692 -0.000106051 0.000128751 0.000118812 0.00011689 0.000464889 
0.000311269 0.000676059 0.000370975 0.000635013 0.00025438 0.000440462 0.000154706 0.000284608 7.73669e-05 9.1502e-05 
-0.000119142 -0.000227228 -0.000382206 -0.000104536 0.000216138 0.000818866 0.000888885 0.000493237 -0.000404639 -0.00032562 
0.00035749 0.00104504 0.000145716 0.00172913 -0.00521184 0.00367005 0.000138446 -0.00210296 -0.000218562 0.000783409 
0.000494504 0.000106901 0.000174647 0.000185526 -3.62992e-06 -0.000288578 -0.000489545 -0.000367026 -8.34601e-05 0.000432686 
0.000120518 0.00212113 -0.000439261 -0.00312303 0.000367971 0.00318486 0.000779983 -0.00153433 -0.00257535 -0.00182022 
0.000838625 0.00212252 0.00259434 0.00112636 -0.00128102 -0.00237919 -0.0054068 -0.00715 -0.00765625 -0.00522416 
-0.00256019 -0.00170176 -0.00194505 -0.00153955 0.00177319 0.00138686 -0.00119465 -0.00180083 0.00108729 0.000629929 
-0.000812447 -0.000230765 0.00085513 -0.000139863 -0.000142079 0.000456162 0.00023075 -0.000242013 0.000171877 -0.000120156 
-8.03538e-05 0.000214738 -0.000253078 -0.000147407 0.00020369 -0.000163598 0.000292965 0.000238736 -2.72645e-05 0.000343844 
-0.000235601 8.93512e-05 -7.00631e-05 -4.7685e-05 0.000382351 0.000181478 0.000791108 0.000518449 0.000956255 0.00071997 
0.000789778 0.000722611 0.00053755 0.000521115 0.000150406 0.000176645 -0.000214732 -9.95334e-05 -0.000302084 -4.93003e-05 
-3.24185e-05 0.000161262 -0.000174227 -0.000423908 -0.000959375 -0.000803296 -0.000231608 0.000756794 0.000600959 -0.000201874 
-0.000802435 -7.40579e-05 -0.00149147 0.00557464 -0.00380923 -0.000439654 0.00204116 8.83859e-05 -0.00105718 -0.000674114 
-3.57354e-05 0.000163788 0.00016613 0.000169994 0.000171341 0.000245136 8.13408e-05 -0.000147634 -0.000520693 0.000385981 
0.000808406 0.000981465 -0.00240937 -0.00103399 0.00348886 0.000879675 -0.00335116 -0.00197909 0.000818177 0.00340589 
0.00256903 -0.000379549 -0.00144343 -0.00242678 -0.0010982 0.00189505 0.00378137 0.0071431 0.00803342 0.00793081 
0.00415665 0.00207941 0.00213483 0.0027469 0.000891686 -0.00267879 -0.00101664 0.00237196 0.00174116 -0.00186302 
-8.83334e-05 0.00140855 -0.000239758 -0.000872732 0.000767142 -0.000182353 -0.00051869 0.000302061 5.61221e-05 -0.000181581 
0.000373716 -6.7344e-05 -5.7763e-05 0.000613875 3.08187e-05 0.000138664 0.00033011 -0.000252735 0.000221922 -2.08811e-05 
6.59812e-05 0.000449082 0.000105059 0.000500286 0.000107135 0.000227144 0.000274884 0.000104881 0.000552343 0.000489482 
0.00106829 0.00102463 0.00148766 0.00139951 0.00144058 0.00107369 0.000643838 5.64827e-05 -0.000554831 -0.00107887 
-0.00123205 -0.000964354 -0.000375001 0.000206827 0.000268922 -0.0003649 -0.00116851 -0.000918674 8.57812e-05 0.000563966 
0.000101498 0.0013331 -0.00578122 0.00411826 0.000874634 -0.00198599 -0.000155942 0.00103927 0.000537286 -0.000234143 
-0.000539911 -0.000390402 -0.000101212 0.000250349 0.000340892 0.000416808 0.000337066 0.000451159 -0.000380882 -8.43312e-05 
0.000757024 -0.000452856 -0.00167579 0.00167367 0.00198709 -0.00305037 -0.00229496 0.00235297 0.00297863 0.000637094 
-0.00358073 -0.00350291 -0.00034197 0.000994157 0.00198467 0.000652764 -0.00264532 -0.00527898 -0.00854146 -0.00821949 
-0.00719554 -0.00269339 -0.00170924 -0.00264059 -0.00321779 0.000548429 0.00347065 0.000136676 -0.00361916 -0.000928902 
0.00237176 -0.000795936 -0.00185257 0.000995937 0.000388064 -0.00122658 0.000572403 0.000250001 -0.000849899 0.000389184 
-7.66268e-05 -0.00058505 0.000309929 -0.000376467 -0.000608787 -1.67797e-05 -0.000461132 -0.000194541 0.000145115 -0.000281023 
0.00023154 -0.000185996 -5.43984e-06 0.000402992 0.000359433 0.00109751 0.00116357 0.00184945 0.00198669 0.00223797 
0.0024065 0.00222596 0.00226602 0.00184733 0.00184326 0.00146739 0.00137457 0.00103796 0.000876148 0.000261914 
-0.000332202 -0.00115735 -0.00141821 -0.00113515 5.90527e-05 0.00109066 0.000911676 -0.000209915 -0.000672495 -0.000586974 
-0.0016714 0.00551224 -0.00478843 -0.00151138 0.00195987 0.000412761 -0.000810747 -0.000306392 0.000407568 0.000630722 
0.000266723 -0.000199605 -0.000588658 -0.0004508 -5.7755e-05 0.000538344 0.000532424 0.000923514 0.000234877 -0.00045965 
0.000398939 -0.000650282 3.20989e-05 0.00134563 -0.00114293 -0.00250772 0.00180101 0.00272595 -0.000971295 -0.00317584 
-0.00200376 0.00299395 0.00431135 0.00156464 -0.00048734 -0.00135008 4.17767e-05 0.00344552 0.00650341 0.00926873 
0.00760578 0.00545122 0.00110403 0.00151269 0.00313312 0.0029398 -0.00258994 -0.00401635 0.00127476 0.00440864 
-0.000569051 -0.00244315 0.0019923 0.00171211 -0.00178235 0.000488115 0.00138648 -0.00102451 0.000402804 0.0009376 
-0.000798562 0.000552823 0.000604261 -0.000523126 0.000749771 0.000246586 0.000105588 0.00067588 -9.06279e-05 0.000126848 
0.000258 0.000147033 0.00073508 0.000541124 0.000920971 0.00120287 0.00135854 0.00204186 0.00242801 0.00344986 
0.00412291 0.00495484 0.00542211 0.0054575 0.0050154 0.00411293 0.00284092 0.00154216 0.000503508 -1.74506e-05 
-0.00012595 -0.000217246 -0.000570729 -0.00133217 -0.00169177 -0.000672343 0.000991023 0.00157899 0.00167935 0.00220528 
-0.00540247 0.00503092 0.00166661 -0.00240924 -0.00100406 0.000447091 0.000158489 -0.000394943 -0.000519287 -0.000107756 
0.00031993 0.000538864 0.0002368 -0.000189508 -0.000609939 -6.85481e-05 0.000158815 0.000934329 0.00118207 -0.000346336 
0.000233893 2.4034e-05 0.000301478 -0.000618771 -0.00130657 0.000725651 0.00208633 -0.00114862 -0.00270055 -5.90506e-05 
0.00305277 0.00295716 -0.00178457 -0.00449954 -0.00296874 -0.000295344 0.000431205 -0.000978228 -0.00436092 -0.0072222 
-0.00908635 -0.00609999 -0.0029125 0.00034998 -0.00160501 -0.00348037 -0.0016219 0.00493866 0.00417459 -0.0030432 
-0.00426186 0.00245657 0.00198106 -0.0032029 -0.00063978 0.00225695 -0.0015403 -0.00103261 0.00141539 -0.00119061 
-0.000396479 0.000956393 -0.00110642 -3.57644e-05 0.00060653 -0.000648789 0.000284405 -0.000229992 -0.000165084 0.000771763 
0.00027765 0.000712436 0.0006659 0.000939856 0.00139922 0.00174313 0.00273037 0.00360552 0.00469965 0.00571647 
0.00683104 0.00773709 0.00862008 0.00901329 0.00906854 0.0084795 0.00712478 0.00509798 0.00244638 -5.17601e-05 
-0.00186036 -0.00232537 -0.00161745 -0.00070489 -0.000868785 -0.00147874 -0.000989318 -0.000768535 -0.000704838 0.00688721 
-0.00431016 -0.00144529 0.00284375 0.00141682 -0.000327959 -0.000259021 0.000252618 0.000340407 2.19459e-05 -0.000348323 
-0.000425997 -0.000109947 0.000179266 0.000481942 -0.00012218 -0.000136402 -0.000247556 -1.54891e-05 0.00153772 0.000258927 
0.000296852 0.000286256 -0.000808369 -0.00119277 0.000986265 0.00142302 -0.00118995 -0.00225611 0.00075637 0.0029228 
0.000997559 -0.0029114 -0.00346399 0.000478981 0.0041406 0.0042279 0.00137489 0.000673274 0.00191217 0.00520519 
0.00721115 0.00784748 0.00371968 6.46506e-05 -0.00135258 0.00214897 0.0034407 -0.00084304 -0.00732443 -0.00368575 
0.00480178 0.00299713 -0.00440176 -0.000952659 0.00385059 -0.00124242 -0.00213479 0.00252895 -0.000113183 -0.00149612 
0.00167383 -0.000601941 -0.000744684 0.00126479 -0.00102885 -0.000347363 0.000287499 -0.000520189 0.000394335 -0.000438217 
-0.000210305 0.00043713 0.000366348 0.00158359 0.00212238 0.00363699 0.00476137 0.00647151 0.00831945 0.0103108 
0.0124263 0.0139845 0.0155754 0.0158889 0.0158722 0.0144946 0.0128454 0.0102429 0.00737697 0.00372372 
-3.06607e-05 -0.00355508 -0.00531006 -0.00454315 -0.00243012 -0.00123015 0.000448572 0.00115509 -0.00611112 0.00565926 
0.00264935 -0.00241486 -0.00142282 0.000461769 0.000662024 0.000129627 6.63207e-05 0.000138123 0.000366813 0.000256686 
-9.03795e-05 -0.00023954 -0.000451435 0.00020788 0.000218566 0.00014454 0.000201394 -0.000800576 0.000896072 0.000724402 
0.000303697 -0.000184462 -0.00159762 0.000269992 0.00223726 -0.00109072 -0.00271025 0.000920501 0.00289718 0.000191006 
-0.00317233 -0.00215439 0.00277203 0.00391987 0.000787153 -0.00345828 -0.00514766 -0.00273832 -0.00193353 -0.00266753 
-0.00566013 -0.006293 -0.00548702 -0.000651399 0.00242639 0.00156016 -0.00313879 -0.00261997 0.00432918 0.00936408 
0.00216202 -0.00610867 -0.000704596 0.00604967 -0.000601317 -0.00348513 0.00333837 0.00128627 -0.00293752 0.00200825 
0.00106321 -0.00165736 0.00176015 0.000148518 -0.000584226 0.00194475 -0.000207793 0.000684929 0.000917909 0.000206746 
0.00156976 0.000918902 0.0019053 0.00217601 0.00285712 0.00444543 0.00579822 0.00898138 0.0115966 0.0160028 
0.0196595 0.0239874 0.0271116 0.029265 0.0295277 0.0275576 0.023678 0.0182454 0.0126047 0.00742965 
0.00316694 -0.000547596 -0.00435847 -0.00651156 -0.00595292 -0.00498521 -0.00260557 0.00700318 -0.00443695 -0.00164072 
0.00322716 0.00164759 -0.000959243 -0.00162641 -0.000743431 -0.00028781 0.000171551 0.000178137 0.000278643 0.000453331 
0.000287599 0.000295344 -0.000411651 -0.000420911 -3.32284e-06 -9.87147e-06 0.000926639 -0.000602739 -5.67198e-05 0.000693248 
0.000102798 -0.000802094 -0.00113529 0.00191017 0.000963371 -0.00324271 -0.0004079 0.00349625 0.000339591 -0.00305163 
-0.00166446 0.00294074 0.0035727 -0.00215034 -0.00435328 -0.00203321 0.00260782 0.00555927 0.00416291 0.00324257 
0.00314197 0.00533281 0.00435115 0.00209085 -0.00267623 -0.00392192 -0.000765983 0.00417443 0.000647051 -0.00833931 
-0.0103264 0.000642177 0.00656315 -0.002398 -0.00682598 0.0025169 0.00209969 -0.00500698 0.000157618 0.00217924 
-0.00381019 0.000176015 0.00112276 -0.00262955 0.000688854 -0.000448412 -0.00162793 0.000922241 -0.00114826 0.000614124 
0.000778297 0.000605709 0.00265551 0.00256407 0.00577628 0.00724278 0.0109343 0.0145646 0.0187115 0.0245398 
0.0295008 0.0362707 0.0410088 0.0463276 0.0482618 0.0486827 0.0444969 0.0375562 0.026678 0.0155257 
0.00500365 -0.00129037 -0.0055149 -0.0078141 -0.00671213 -0.00560936 -0.0107648 0.00489066 0.00480419 -0.000187768 
0.000495441 0.00183475 0.00155022 -0.000203874 -0.0010011 -0.00124226 -0.000899119 -0.000433436 -0.000269026 8.39153e-05 
0.000119515 0.000639836 0.000551665 -0.000197171 -0.000174411 -0.00082793 0.000818347 0.00031609 -0.000459851 0.000332046 
-0.000187847 -0.000915178 8.13024e-07 0.00207301 -0.00126205 -0.00265563 0.00253514 0.00206745 -0.0030309 -0.00168219 
0.00237111 0.00308017 -0.0019236 -0.00470664 0.000853411 0.0045768 0.00331439 -0.00165352 -0.00550099 -0.00543928 
-0.00444519 -0.00325935 -0.00384536 -0.00133937 0.00202732 0.00565789 0.00410218 -0.000911332 -0.00457938 0.00246161 
0.011954 0.00931272 -0.00439425 -0.00583339 0.00586428 0.00593031 -0.00451727 7.49005e-05 0.00574331 -0.00193004 
-0.000531988 0.00427925 -0.0020018 0.000278978 0.00261804 -0.00172745 0.00147647 0.00055626 -0.000566897 0.00177403 
-0.000599458 0.00194325 0.00207284 0.00349457 0.00688143 0.00844083 0.015036 0.0197256 0.028954 0.0373929 
0.0479697 0.0581326 0.0669739 0.0741383 0.0771888 0.0772856 0.0722223 0.064117 0.051177 0.0355587 