# vtk DataFile Version 2.0
Titre
ASCII
DATASET STRUCTURED_POINTS
DIMENSIONS 100 100 1
ORIGIN 0.0 0.0 0.0
SPACING 0.1 0.1 0.0
POINT_DATA 10000 
SCALARS rho float
LOOKUP_TABLE default
-0.00530222 0.000206224 0.0105359 0.0111438 0.014021 0.00544624 -0.00272539 -0.00915677 -0.00849904 -0.00232886 
0.00341236 0.00478798 0.00184476 -0.00111651 -0.00147682 -3.84678e-05 0.000723457 0.000205663 -0.000368012 -0.000195903 
0.000157754 0.000100295 -0.000103009 -6.64992e-05 5.56408e-05 3.01789e-05 -3.54021e-05 -1.20598e-05 1.98431e-05 1.28798e-06 
-1.01602e-05 2.39062e-06 3.77576e-06 -2.55253e-06 -5.68807e-07 1.32911e-06 -4.37272e-07 -2.99284e-07 3.3859e-07 -9.21898e-08 
-6.65915e-08 7.68983e-08 -3.02176e-08 -4.38886e-09 1.31507e-08 -8.67126e-09 2.72397e-09 4.13721e-10 -1.13039e-09 8.22261e-10 
-3.84964e-10 1.1189e-10 1.13365e-12 -2.78546e-11 2.3464e-11 -1.37977e-11 6.70637e-12 -2.8538e-12 1.08518e-12 -3.74586e-13 
1.16634e-13 -3.41172e-14 6.71511e-15 -6.79387e-15 -1.13197e-14 -2.9902e-14 -7.86028e-14 -2.04984e-13 -5.69245e-13 -1.52619e-12 
-4.31143e-12 -1.15563e-11 -3.1899e-11 -8.31928e-11 -2.17247e-10 -5.41155e-10 -1.30018e-09 -3.05105e-09 -6.50826e-09 -1.41618e-08 
-2.49929e-08 -4.86782e-08 -5.55568e-08 -7.77944e-08 9.79036e-08 4.1511e-07 1.77623e-06 4.6908e-06 1.11704e-05 2.80098e-05 
5.44817e-05 0.000127839 0.00023002 0.000423 0.000665089 0.000598192 0.00020963 -0.00173809 -0.00517874 -0.00494967 
-0.0123305 0.00817081 0.000240802 -0.00494048 -0.0137097 -0.0237796 -0.0163753 -0.00582578 0.00903242 0.0120716 
0.00636034 -0.00268703 -0.00553609 -0.00208578 0.00203053 0.00214679 -0.000180694 -0.00117428 -0.000192264 0.000566555 
0.000136907 -0.000318419 -7.42756e-05 0.000189429 2.63957e-05 -0.000115476 1.34265e-07 6.47463e-05 -1.34192e-05 -3.11936e-05 
1.55449e-05 1.05702e-05 -1.12851e-05 -4.8625e-07 5.3318e-06 -2.30342e-06 -1.11108e-06 1.56153e-06 -4.54681e-07 -3.34807e-07 
3.8837e-07 -1.37141e-07 -4.36228e-08 7.95549e-08 -4.49436e-08 8.60516e-09 7.47936e-09 -8.71454e-09 4.97167e-09 -1.66519e-09 
3.58331e-11 4.13587e-10 -3.6548e-10 2.13944e-10 -9.86487e-11 3.67694e-11 -1.03191e-11 1.28666e-12 8.80649e-13 -9.31965e-13 
5.85362e-13 -2.98221e-13 1.47326e-13 -3.55096e-14 8.75519e-14 1.61038e-13 4.48132e-13 1.14156e-12 2.88102e-12 7.10793e-12 
1.71447e-11 4.02253e-11 9.15094e-11 2.00119e-10 4.1717e-10 8.14441e-10 1.44536e-09 2.18596e-09 2.1879e-09 -1.21165e-09 
-1.59992e-08 -5.86534e-08 -1.69604e-07 -4.04984e-07 -8.89254e-07 -1.6848e-06 -2.94867e-06 -4.36669e-06 -5.32007e-06 -4.2749e-06 
5.85735e-06 3.37018e-05 0.000133652 0.00038807 0.00102413 0.00234896 0.00426592 0.00615786 0.00487169 -0.00350374 
0.00604445 0.0231442 0.0016182 0.0112132 0.0014431 0.00932818 0.0111434 0.00833364 -0.00031307 -0.00950493 
-0.00969244 -0.00240554 0.00537098 0.00575864 0.000589045 -0.00314194 -0.00184811 0.000966354 0.00124579 -0.000257827 
-0.000662892 0.000137086 0.000363171 -0.00012988 -0.000210632 0.000117072 0.000113382 -9.43915e-05 -4.73968e-05 6.62859e-05 
7.56109e-06 -3.7958e-05 9.70763e-06 1.5086e-05 -1.12598e-05 -1.70284e-06 5.95619e-06 -2.51433e-06 -1.06196e-06 1.68723e-06 
-6.69377e-07 -1.98185e-07 3.90788e-07 -2.14601e-07 2.52135e-08 5.34126e-08 -5.11105e-08 2.48681e-08 -5.04668e-09 -3.09655e-09 
4.10145e-09 -2.7039e-09 1.27561e-09 -4.32093e-10 6.98168e-11 3.82621e-11 -4.7905e-11 3.26773e-11 -1.79315e-11 8.69156e-12 
-3.87646e-12 1.62889e-12 -6.55735e-13 2.53095e-13 -1.03891e-13 1.72506e-14 -5.74275e-14 -7.62058e-14 -7.11942e-14 3.05075e-13 
2.27929e-12 1.00969e-11 3.69755e-11 1.21261e-10 3.67207e-10 1.0417e-09 2.78666e-09 7.04413e-09 1.68162e-08 3.7733e-08 
7.9085e-08 1.52476e-07 2.65077e-07 3.93365e-07 4.39551e-07 1.25409e-07 -1.06459e-06 -4.02531e-06 -9.85861e-06 -2.01365e-05 
-3.91682e-05 -7.88286e-05 -0.000181144 -0.000419867 -0.000907554 -0.00160509 -0.00193105 -0.000616514 0.00404198 0.00993945 
0.00704188 -0.00221979 -0.00704616 -0.00653969 -0.0133296 -0.0130406 -0.0160665 -0.0129627 -0.00368738 0.00763105 
0.0138907 0.0087677 -0.00206674 -0.00851903 -0.00507598 0.00211473 0.00435636 0.000837209 -0.00205772 -0.00098962 
0.000876176 0.000526136 -0.000499543 -0.000213353 0.000366566 5.73557e-05 -0.000267607 2.21059e-05 0.000170975 -5.8381e-05 
-8.64222e-05 6.16477e-05 2.57904e-05 -4.31074e-05 5.56536e-06 1.86729e-05 -1.22194e-05 -1.89796e-06 6.55455e-06 -3.23911e-06 
-6.22586e-07 1.73265e-06 -9.90857e-07 7.79107e-08 3.02771e-07 -2.66284e-07 1.12116e-07 -5.01733e-09 -3.14304e-08 2.85016e-08 
-1.54965e-08 5.52074e-09 -6.66922e-10 -8.39822e-10 9.03754e-10 -5.9429e-10 3.14684e-10 -1.44735e-10 5.97481e-11 -2.25277e-11 
7.8426e-12 -2.55105e-12 7.72177e-13 -2.63848e-13 -9.24862e-15 -2.457e-13 -5.8568e-13 -1.58671e-12 -4.15275e-12 -1.07491e-11 
-2.73409e-11 -6.81796e-11 -1.66044e-10 -3.93104e-10 -8.99326e-10 -1.97244e-09 -4.10038e-09 -7.93507e-09 -1.38312e-08 -2.01078e-08 
-1.81949e-08 1.87897e-08 1.58644e-07 5.48607e-07 1.46474e-06 3.36164e-06 6.89028e-06 1.30104e-05 2.36391e-05 4.45438e-05 
9.36771e-05 0.000218232 0.000519889 0.00115408 0.00225468 0.00366269 0.00457061 0.003621 0.000293012 -0.00141998 
-0.00668561 0.00873226 -0.000974379 0.00841636 0.000577597 0.00729924 0.00864319 0.0137715 0.0111723 0.000749471 
-0.0112898 -0.0150239 -0.00578284 0.00694583 0.010617 0.0028844 -0.00530749 -0.00478825 0.00096708 0.0029878 
0.000238782 -0.00143305 -0.000107151 0.00072372 -0.0001505 -0.000422551 0.000263883 0.000235788 -0.000264427 -8.89282e-05 
0.000203615 -1.13545e-05 -0.000118402 5.39583e-05 4.14103e-05 -4.81808e-05 3.81615e-06 2.13949e-05 -1.43817e-05 -7.40192e-07 
6.78441e-06 -4.35971e-06 3.61892e-07 1.45042e-06 -1.25927e-06 4.69897e-07 6.24424e-08 -2.13152e-07 1.61525e-07 -7.26592e-08 
1.47039e-08 8.15792e-09 -1.13767e-08 7.98709e-09 -4.2343e-09 1.83064e-09 -6.43474e-10 1.65153e-10 -1.16123e-11 -2.08719e-11 
1.8596e-11 -1.10305e-11 5.50512e-12 -2.43439e-12 1.07534e-12 -2.15879e-13 6.02685e-13 1.14756e-12 3.00207e-12 7.1754e-12 
1.64595e-11 3.54767e-11 7.00322e-11 1.19237e-10 1.43375e-10 -4.03239e-11 -1.05304e-09 -4.70977e-09 -1.57797e-08 -4.57149e-08 
-1.19738e-07 -2.88632e-07 -6.4511e-07 -1.34152e-06 -2.60534e-06 -4.7768e-06 -8.51093e-06 -1.56446e-05 -3.19297e-05 -7.38008e-05 
-0.000181053 -0.000432051 -0.000942174 -0.00179514 -0.00284807 -0.0034173 -0.00218803 0.00187627 0.0070242 0.00628926 
0.0192498 0.0149034 0.00263201 0.00304728 -0.0103683 -0.0041462 -0.00920033 -0.00737078 -0.0106058 -0.00643363 
0.00353582 0.0138389 0.0133967 0.000725782 -0.0115423 -0.0104376 0.00126472 0.00830202 0.00364244 -0.00350862 
-0.00326505 0.00106946 0.0016953 -0.000526945 -0.00064946 0.00054042 0.000138124 -0.000521694 0.00010802 0.000386079 
-0.000215371 -0.000197812 0.000217553 3.55105e-05 -0.000145218 4.96233e-05 5.29862e-05 -5.52396e-05 6.32532e-06 2.25203e-05 
-1.78496e-05 2.39542e-06 5.91469e-06 -5.45712e-06 1.91007e-06 5.55495e-07 -1.16697e-06 7.9215e-07 -2.85886e-07 -9.03607e-09 
9.81709e-08 -8.54844e-08 4.89278e-08 -2.07947e-08 6.00913e-09 -2.57684e-10 -1.16636e-09 1.07167e-09 -6.76992e-10 3.60686e-10 
-1.73057e-10 7.71905e-11 -3.26053e-11 1.32126e-11 -5.13352e-12 2.03371e-12 -4.88833e-13 9.30886e-13 1.91036e-12 5.92471e-12 
1.72283e-11 4.9644e-11 1.40121e-10 3.86058e-10 1.03444e-09 2.68663e-09 6.74123e-09 1.62863e-08 3.77485e-08 8.36249e-08 
1.76432e-07 3.53686e-07 6.74812e-07 1.24006e-06 2.26872e-06 4.39627e-06 9.61559e-06 2.3776e-05 6.21078e-05 0.000159013 
0.000380022 0.000823716 0.00158339 0.00262515 0.00358056 0.0036195 0.00188411 -0.000988445 -0.000967481 0.00751417 
-0.00135464 -0.0186285 -0.0151422 -0.0137343 -0.00777445 0.00323921 0.00407382 0.00811493 0.00702443 0.00803963 
0.00293371 -0.00665474 -0.0142514 -0.00958691 0.00518818 0.0145007 0.0073858 -0.00673839 -0.00985895 -0.000427485 
0.00619478 0.0023005 -0.00279389 -0.00142686 0.00122618 0.000291183 -0.00066731 0.000362941 0.000362945 -0.000578725 
-8.04343e-05 0.000511958 -0.000142376 -0.000298814 0.00022767 7.38517e-05 -0.00017188 5.52713e-05 5.8455e-05 -6.52986e-05 
1.5137e-05 2.00477e-05 -2.15721e-05 7.77723e-06 2.86057e-06 -5.46491e-06 3.48338e-06 -9.65259e-07 -3.9536e-07 6.82573e-07 
-4.87055e-07 2.30372e-07 -6.58005e-08 -4.95538e-09 2.21964e-08 -1.88747e-08 1.16217e-08 -6.02964e-09 2.78561e-09 -1.18006e-09 
4.67851e-10 -1.76739e-10 6.47938e-11 -2.35474e-11 8.52796e-12 -3.43359e-12 5.92379e-13 -2.22004e-12 -4.61778e-12 -1.29883e-11 
-3.41499e-11 -8.85597e-11 -2.24275e-10 -5.53692e-10 -1.32827e-09 -3.08559e-09 -6.91547e-09 -1.49001e-08 -3.07843e-08 -6.10281e-08 
-1.17119e-07 -2.23353e-07 -4.46132e-07 -9.95738e-07 -2.53934e-06 -7.05011e-06 -1.98306e-05 -5.36812e-05 -0.000136001 -0.000317533 
-0.000675188 -0.00128964 -0.00216721 -0.00309047 -0.00347236 -0.00248134 0.000149173 0.00269255 0.00130446 -0.00459606 
-0.00390528 0.00980932 0.0118766 0.0185231 0.0135459 0.00897098 -0.00225678 -0.00473318 -0.00726011 -0.00573686 
-0.00548393 -0.000708553 0.00755755 0.0123248 0.00467703 -0.00999823 -0.0143873 -0.00167936 0.0118572 0.00853742 
-0.00461877 -0.00777532 0.000387656 0.00442987 0.000355239 -0.00185086 0.000189275 0.000442282 -0.000627739 0.000279609 
0.000618324 -0.000611045 -0.000296697 0.000624587 -6.83103e-05 -0.000393152 0.000251639 9.48408e-05 -0.000201579 7.76111e-05 
5.25212e-05 -7.61328e-05 3.15528e-05 1.04844e-05 -2.23127e-05 1.40635e-05 -2.93753e-06 -2.90443e-06 3.68111e-06 -2.29727e-06 
8.52347e-07 -4.2065e-08 -2.24406e-07 2.21102e-07 -1.42702e-07 7.34262e-08 -3.16712e-08 1.14454e-08 -3.25368e-09 5.19615e-10 
1.53948e-10 -2.02878e-10 1.28081e-10 -6.3786e-11 2.76679e-11 -1.05671e-11 4.21365e-12 3.10017e-14 3.63709e-12 8.59335e-12 
2.21005e-11 5.45401e-11 1.30133e-10 2.99253e-10 6.61575e-10 1.40543e-09 2.88324e-09 5.8155e-09 1.20275e-08 2.72692e-08 
7.13514e-08 2.11402e-07 6.61214e-07 2.0518e-06 6.10163e-06 1.71147e-05 4.49452e-05 0.000109983 0.000249532 0.000521308 
0.000992478 0.00169435 0.00252633 0.00313748 0.00292912 0.00145592 -0.000625366 -0.000835547 0.00315707 0.00692317 
0.0146722 0.00622885 -2.64117e-05 -0.00857416 -0.0173371 -0.0139905 -0.00824367 0.00393878 0.00758292 0.00801061 
0.00478732 0.00353651 -9.93313e-05 -0.00651797 -0.00922395 -0.000521769 0.0120234 0.0109806 -0.00503893 -0.0143737 
-0.00366546 0.0100137 0.00664955 -0.00463352 -0.00496155 0.00173458 0.00219689 -0.000738181 -0.000173952 0.000297467 
-0.00081375 0.000181988 0.000946323 -0.000621797 -0.000527939 0.000746 -2.20719e-05 -0.000482234 0.000308532 8.37831e-05 
-0.000230185 0.00012147 2.54412e-05 -7.91292e-05 5.26803e-05 -9.07852e-06 -1.46234e-05 1.66816e-05 -9.39228e-06 2.42277e-06 
1.08272e-06 -1.83856e-06 1.38889e-06 -7.52941e-07 3.0972e-07 -8.56751e-08 6.06733e-10 1.9592e-08 -1.73944e-08 1.09567e-08 
-5.86717e-09 2.83522e-09 -1.27171e-09 5.37671e-10 -2.16123e-10 8.29245e-11 -3.04618e-11 1.05434e-11 -3.82603e-12 4.96554e-13 
-1.5836e-12 -2.04222e-12 -3.06282e-12 -4.97999e-12 -2.21062e-11 -1.42657e-10 -7.86386e-10 -3.66208e-09 -1.50095e-08 -5.57389e-08 
-1.90948e-07 -6.101e-07 -1.82998e-06 -5.17109e-06 -1.37843e-05 -3.46446e-05 -8.19194e-05 -0.00018151 -0.000374536 -0.000713189 
-0.00123643 -0.00191156 -0.00254675 -0.00274143 -0.00203768 -0.000442807 0.000897478 9.2599e-05 -0.00228319 0.000813696 
-0.00551864 -0.0172437 -0.0143388 -0.012305 -0.00103534 0.0092372 0.0102512 0.00406006 -0.0078386 -0.0119712 
-0.00951926 -0.00395673 -0.00198724 2.27234e-05 0.00490631 0.00699255 -0.00113806 -0.0110057 -0.00596441 0.0101 
0.0127432 -0.0036256 -0.0131612 -0.00184127 0.0089967 0.00305508 -0.0045879 -0.00171904 0.00158818 0.00020766 
0.000231719 0.00037059 -0.00120399 -1.93095e-05 0.00134119 -0.000643284 -0.000751219 0.000909345 -4.44023e-05 -0.000555357 
0.000413138 1.60259e-05 -0.00023748 0.000181535 -3.29956e-05 -5.75208e-05 6.55927e-05 -3.44672e-05 4.81819e-06 8.98432e-06 
-1.03238e-05 6.70261e-06 -2.9815e-06 7.42414e-07 1.7921e-07 -3.77765e-07 3.06313e-07 -1.89113e-07 1.00439e-07 -4.82254e-08 
2.15347e-08 -9.12152e-09 3.72109e-09 -1.47902e-09 5.77069e-10 -2.21743e-10 8.35895e-11 -3.12901e-11 1.02235e-11 -5.9069e-12 
-2.94222e-12 -6.90841e-12 -5.08669e-13 5.38961e-11 3.19835e-10 1.38301e-09 5.20312e-09 1.79562e-08 5.81187e-08 1.78324e-07 
5.21442e-07 1.4566e-06 3.88903e-06 9.91608e-06 2.40975e-05 5.56375e-05 0.000121506 0.000249471 0.000477569 0.000842612 
0.00134755 0.00190392 0.00227591 0.00211258 0.00119991 -6.33271e-05 -0.000464655 0.000831397 0.00156312 -0.00287171 
-0.00311705 0.00783853 0.0148087 0.0217337 0.0213286 0.012897 0.00101245 -0.00288272 0.00261032 0.0137655 
0.0168405 0.0104085 0.00172334 -0.000544219 -0.000520152 -0.00440479 -0.00699615 0.00036689 0.00889575 0.00223951 
-0.0115624 -0.00763467 0.0103365 0.0116877 -0.00568871 -0.0107634 0.00200521 0.0068281 -0.000497862 -0.00277959 
-0.000109549 7.8426e-05 0.000874146 0.000859347 -0.00168545 -0.000307553 0.00179759 -0.000752847 -0.00092324 0.00114545 
-0.000194115 -0.000568844 0.000557645 -0.000136788 -0.000179592 0.000225729 -0.00011681 4.59194e-06 4.64165e-05 -4.62761e-05 
2.66027e-05 -8.77642e-06 -7.42354e-07 3.63422e-06 -3.31285e-06 2.14072e-06 -1.13808e-06 5.2319e-07 -2.12142e-07 7.61988e-08 
-2.40243e-08 6.46297e-09 -1.38465e-09 1.93797e-10 -4.94817e-12 3.18143e-12 -1.16973e-11 1.08983e-11 -8.0496e-12 2.65218e-13 
-1.46744e-11 -4.56328e-11 -1.59391e-10 -5.28272e-10 -1.69924e-09 -5.30003e-09 -1.60419e-08 -4.71128e-08 -1.34179e-07 -3.70217e-07 
-9.88153e-07 -2.54666e-06 -6.32214e-06 -1.50737e-05 -3.43912e-05 -7.47411e-05 -0.000153829 -0.000297596 -0.000535807 -0.000885564 
-0.00131709 -0.00170882 -0.00183188 -0.00144521 -0.000563684 0.000252734 0.000159953 -0.000598531 0.000380911 0.00339233 
0.00849522 0.00549384 -0.000174866 -0.0108877 -0.0229494 -0.0278389 -0.0231892 -0.0113299 -0.00529452 -0.00967019 
-0.0195813 -0.0200035 -0.00823112 0.00415912 0.00571705 0.00253782 0.00521942 0.00825462 0.00036743 -0.00873282 
-0.00157889 0.0101921 0.00208292 -0.0133147 -0.00548018 0.0125681 0.00732821 -0.00881894 -0.00587174 0.004733 
0.00309401 -0.00133409 -0.00130415 -0.00100878 0.00132634 0.00168414 -0.00223907 -0.0005664 0.0023219 -0.00107088 
-0.000947614 0.00144381 -0.000537863 -0.00042419 0.000672045 -0.000370407 -3.93659e-06 0.000183734 -0.000174808 9.0478e-05 
-1.71081e-05 -1.83712e-05 2.47184e-05 -1.83539e-05 1.02194e-05 -4.48922e-06 1.47029e-06 -2.27697e-07 -1.39085e-07 1.72039e-07 
-1.19061e-07 6.65051e-08 -3.26869e-08 1.46291e-08 -6.05896e-09 2.33995e-09 -8.43958e-10 2.85654e-10 -8.42956e-11 3.94794e-11 
3.76306e-11 1.37807e-10 4.15128e-10 1.24406e-09 3.65884e-09 1.05488e-08 2.97618e-08 8.20224e-08 2.20382e-07 5.76065e-07 
1.46149e-06 3.58908e-06 8.50539e-06 1.93798e-05 4.22724e-05 8.78017e-05 0.000172501 0.000317832 0.000542956 0.000846474 
0.00117661 0.00140498 0.00134678 0.000884443 0.00018258 -0.000236429 1.84845e-05 0.000269785 -0.000629559 5.08716e-05 
-0.00281528 -0.0110462 -0.0119308 -0.0106866 0.000679384 0.0163093 0.0281547 0.0288346 0.0190507 0.0116287 
0.014553 0.0223212 0.0184663 0.000307446 -0.0150876 -0.0131707 -0.00419496 -0.00464072 -0.00766389 0.00173333 
0.0115744 0.00237557 -0.00935902 0.000817203 0.0119332 -0.00238311 -0.0146194 0.00126635 0.0131762 -0.000322767 
-0.00872229 -0.000126092 0.00402727 0.00115564 -0.0013725 -0.00257374 0.00155015 0.00266922 -0.00298543 -0.000581449 
0.00287411 -0.00173174 -0.00063032 0.00167072 -0.00108146 1.34062e-05 0.000582639 -0.000568991 0.000273471 -8.83818e-06 
-0.000111366 0.000117473 -7.69966e-05 3.58601e-05 -1.01727e-05 -1.16175e-06 4.13161e-06 -3.66826e-06 2.41347e-06 -1.35834e-06 
6.90003e-07 -3.25232e-07 1.44607e-07 -6.12638e-08 2.48683e-08 -9.69326e-09 3.6256e-09 -1.30208e-09 4.36501e-10 -1.69423e-10 
-3.10529e-11 -2.39349e-10 -6.64922e-10 -1.93997e-09 -5.52407e-09 -1.54272e-08 -4.21715e-08 -1.12628e-07 -2.93317e-07 -7.43218e-07 
-1.82768e-06 -4.34949e-06 -9.98331e-06 -2.20134e-05 -4.64091e-05 -9.29978e-05 -0.000175827 -0.000310664 -0.000506425 -0.00074806 
-0.00097467 -0.00107166 -0.000913183 -0.000480303 9.39513e-06 0.000181656 -2.3113e-05 -1.5439e-05 0.0002129 -0.00161794 
-0.00347426 0.00210857 0.00876555 0.0165797 0.020302 0.0132502 -0.00358375 -0.0212456 -0.0283537 -0.0219852 
-0.0138532 -0.0147514 -0.0193783 -0.0102409 0.0137083 0.0287665 0.0182705 0.000263044 -0.00118232 0.00357489 
-0.0059703 -0.0144128 -0.000578467 0.011744 -0.0011819 -0.00909675 0.00751701 0.0102402 -0.010639 -0.0102282 
0.00975726 0.00743127 -0.00646354 -0.00431392 0.00257039 0.0034507 -0.000551778 -0.00430746 0.00184924 0.0035977 
-0.00411561 -4.11076e-06 0.00322485 -0.00276387 0.00030528 0.00146643 -0.00159709 0.000758958 7.72819e-05 -0.000458277 
0.000441083 -0.000260491 9.14307e-05 4.85562e-06 -3.80279e-05 3.75107e-05 -2.61722e-05 1.52019e-05 -7.80088e-06 3.65366e-06 
-1.59894e-06 6.67196e-07 -2.70455e-07 1.08187e-07 -4.31244e-08 1.71537e-08 -6.76481e-09 2.62172e-09 -9.72575e-10 3.86839e-10 
-2.47344e-11 3.29268e-10 8.32655e-10 2.42698e-09 6.80789e-09 1.87386e-08 5.03998e-08 1.32309e-07 3.38299e-07 8.40663e-07 
2.02502e-06 4.71442e-06 1.05702e-05 2.27278e-05 4.66259e-05 9.06834e-05 0.000165865 0.000282318 0.00044084 0.00061883 
0.000757117 0.000765899 0.000574491 0.000223332 -8.46804e-05 -0.000127171 2.16478e-05 5.74825e-05 0.000318573 0.00102909 
0.00403915 0.00605133 0.00409317 -0.00251735 -0.0143827 -0.0248719 -0.0253365 -0.0113744 0.00933763 0.0222477 
0.0195527 0.0108536 0.00924437 0.010603 -0.00277704 -0.0290178 -0.0377816 -0.0133865 0.0136505 0.0116694 
-0.000138272 0.00716676 0.0129023 -0.00562085 -0.0156581 0.00282045 0.00858865 -0.0082074 -0.00283028 0.0141689 
-0.000258494 -0.0148754 0.00206768 0.0108866 -0.00192194 -0.00640197 -4.88412e-05 0.00520521 0.000548323 -0.00617227 
0.00276154 0.00406937 -0.00568487 0.00162918 0.00275925 -0.00378007 0.0019561 0.000310737 -0.00144537 0.00136656 
-0.000737278 0.000150318 0.000163478 -0.000238727 0.000193324 -0.000119958 6.15419e-05 -2.66052e-05 9.5072e-06 -2.54662e-06 
2.70807e-07 2.30602e-07 -2.15387e-07 1.20171e-07 -5.2967e-08 1.94623e-08 -5.87803e-09 1.29437e-09 -8.68624e-11 -1.58242e-10 
-1.35403e-11 -3.60114e-10 -9.00411e-10 -2.6267e-09 -7.33207e-09 -2.0032e-08 -5.34496e-08 -1.38922e-07 -3.51218e-07 -8.6157e-07 
-2.04549e-06 -4.6853e-06 -1.03158e-05 -2.17343e-05 -4.35803e-05 -8.25974e-05 -0.000146682 -0.000241285 -0.000361899 -0.000483816 
-0.000556391 -0.000516694 -0.000335395 -7.71238e-05 9.96519e-05 8.09852e-05 -3.89718e-05 -0.000118341 -0.000220482 0.000576682 
0.000370671 -0.00466751 -0.00847017 -0.0116846 -0.00816598 0.00396962 0.0205053 0.0303255 0.0236292 0.00395899 
-0.0124967 -0.0128559 -0.00377457 -0.000382388 -0.00053451 0.013281 0.0363503 0.0336239 -0.00508802 -0.0336823 
-0.0177421 0.00578284 -0.00153733 -0.00778256 0.0123998 0.0160204 -0.00917492 -0.0105624 0.00781452 -0.00133481 
-0.00944237 0.0104053 0.00856078 -0.0132472 -0.00478897 0.0104946 0.00237985 -0.00670704 -0.00280439 0.00679468 
0.00117519 -0.00814538 0.00493528 0.00322818 -0.00715014 0.0045316 0.000501666 -0.00356576 0.00353709 -0.00179847 
6.25725e-05 0.000849965 -0.000982773 0.000721421 -0.000395975 0.000159923 -3.4397e-05 -1.4083e-05 2.35235e-05 -1.88069e-05 
1.17781e-05 -6.39595e-06 3.1333e-06 -1.41155e-06 5.90609e-07 -2.30613e-07 8.41475e-08 -2.86489e-08 9.0769e-09 -2.60997e-09 
8.0113e-10 1.46594e-10 9.19222e-10 2.56414e-09 7.13265e-09 1.94962e-08 5.17514e-08 1.33827e-07 3.35867e-07 8.16687e-07 
1.91837e-06 4.33922e-06 9.41441e-06 1.94996e-05 3.83335e-05 7.10024e-05 0.00012275 0.000195617 0.000282436 0.000360201 
0.000389528 0.000330735 0.00018028 4.24723e-06 -8.60943e-05 -4.07033e-05 5.5921e-05 9.13772e-05 -8.09224e-05 -0.0008387 
-0.00260756 -0.00214248 0.00109062 0.00749655 0.0157496 0.019078 0.0113192 -0.00746859 -0.0262018 -0.0298682 
-0.0155205 0.00171131 0.00471058 -0.0032769 -0.00558082 -0.00249239 -0.0122744 -0.0291324 -0.0160348 0.0288152 
0.0456779 0.00757973 -0.0229396 -0.00512287 0.00653013 -0.0143747 -0.0103455 0.0186564 0.0100085 -0.0118794 
0.000222613 0.00325416 -0.0104107 0.00461528 0.0127377 -0.00915265 -0.00858073 0.00824194 0.00536218 -0.00624915 
-0.00513372 0.00889898 0.00032112 -0.00965027 0.00869085 -0.000292728 -0.00669186 0.00755084 -0.00385645 -0.000448142 
0.00282993 -0.00304606 0.00208506 -0.000959168 0.000180878 0.000182895 -0.000267027 0.000223525 -0.000149609 8.73981e-05 
-4.63544e-05 2.28224e-05 -1.05728e-05 4.64599e-06 -1.94453e-06 7.76195e-07 -2.95315e-07 1.06896e-07 -3.67339e-08 1.19105e-08 
-3.75784e-09 7.96595e-10 -1.11289e-09 -2.19357e-09 -6.49871e-09 -1.75185e-08 -4.66502e-08 -1.20126e-07 -3.00271e-07 -7.25527e-07 
-1.69064e-06 -3.78584e-06 -8.11392e-06 -1.65609e-05 -3.1992e-05 -5.80389e-05 -9.78906e-05 -0.000151442 -0.000210879 -0.000256922 
-0.000261237 -0.000201476 -8.72309e-05 2.50636e-05 6.31828e-05 1.33235e-05 -4.73352e-05 -1.56107e-05 0.000169494 4.95106e-05 
0.000760827 0.00363624 0.00545653 0.00527631 -0.000466477 -0.011859 -0.0231223 -0.0240511 -0.00860277 0.0156207 
0.0300369 0.0236873 0.00741177 0.000882809 0.00470956 0.00206389 -0.00708069 -0.00167367 0.0130801 -0.00138714 
-0.0401869 -0.0367987 0.0184539 0.0391048 -0.00031124 -0.0139352 0.0129427 0.00216503 -0.0252148 -0.000954518 
0.0204522 -0.00145606 -0.0051962 0.0029415 -0.0087371 0.000896378 0.0130671 -0.0057491 -0.0093152 0.00571662 
0.00709283 -0.0060972 -0.00655915 0.0119719 -0.00338063 -0.00873754 0.0127099 -0.00718176 -0.00140441 0.00683256 
-0.00736002 0.00478085 -0.00164807 -0.000506155 0.00139602 -0.00141518 0.00106293 -0.000670115 0.000373427 -0.000189733 
8.99926e-05 -4.0658e-05 1.77928e-05 -7.62934e-06 3.21919e-06 -1.33313e-06 5.3793e-07 -2.09676e-07 7.83375e-08 -2.78347e-08 
9.43798e-09 -2.69355e-09 1.46082e-09 1.8139e-09 5.36806e-09 1.49645e-08 3.93624e-08 1.0169e-07 2.53232e-07 6.09454e-07 
1.41136e-06 3.13489e-06 6.64964e-06 1.33997e-05 2.54846e-05 4.53696e-05 7.47969e-05 0.000112546 0.000151407 0.00017644 
0.000168566 0.000116926 3.57942e-05 -3.15037e-05 -4.15835e-05 -9.99705e-08 2.82739e-05 -1.33253e-05 -3.12402e-05 0.000432579 
0.00128142 0.000165308 -0.00249355 -0.00719019 -0.0116584 -0.0109696 -0.00114691 0.0152518 0.0265492 0.0199276 
-0.00393561 -0.0261837 -0.0278592 -0.0127334 -0.00112949 0.00171478 0.0105318 0.0236458 0.0162344 -0.00581511 
0.00118548 0.0302188 0.0132143 -0.0411392 -0.0357927 0.0216147 0.0214536 -0.0159737 0.00397973 0.0237232 
-0.0161637 -0.0229417 0.0147573 0.0108047 -0.00453127 -0.000389699 -0.00737963 0.000525482 0.0111946 -0.00427275 
-0.007739 0.00345635 0.00820509 -0.00726761 -0.00597883 0.0152059 -0.0107831 -0.00195364 0.012053 -0.0137435 
0.00866618 -0.00173768 -0.00324303 0.00514923 -0.0047587 0.00338109 -0.00198295 0.000981099 -0.000407242 0.00013587 
-3.09822e-05 1.80588e-07 4.56113e-06 -2.99499e-06 1.2351e-06 -3.25347e-07 6.40345e-09 5.67573e-08 -4.48005e-08 2.43835e-08 
-1.1221e-08 4.49633e-09 -2.49781e-09 -5.9124e-10 -4.88426e-09 -1.1518e-08 -3.18718e-08 -8.13284e-08 -2.02989e-07 -4.86786e-07 
-1.12235e-06 -2.47656e-06 -5.20763e-06 -1.03776e-05 -1.94648e-05 -3.40651e-05 -5.49938e-05 -8.06297e-05 -0.000104976 -0.000117143 
-0.000105024 -6.45649e-05 -9.96406e-06 2.79857e-05 2.54344e-05 -4.30139e-06 -1.63697e-05 -3.84233e-08 -5.36031e-05 -0.00013715 
-0.000738074 -0.00220617 -0.0027767 -0.00147565 0.00395542 0.0128044 0.0200306 0.0176552 0.0023323 -0.0169085 
-0.0222928 -0.00517342 0.0197995 0.0278265 0.014161 -0.00198662 -0.0101482 -0.0211958 -0.0314059 -0.0143314 
0.0191191 0.0162102 -0.0141686 0.000671857 0.041001 0.0124507 -0.0421618 -0.0144011 0.0253725 -0.00872806 
-0.0142395 0.0304081 0.0066617 -0.0323115 9.32697e-05 0.0179197 0.000545049 -0.00447057 -0.00721366 0.00318939 
0.00771559 -0.00411539 -0.00469821 0.00122436 0.00943407 -0.0107058 -0.00109349 0.0147218 -0.0187965 0.0118234 
-0.000184737 -0.00901935 0.0125633 -0.0112184 0.00754386 -0.00382662 0.00121801 0.000136188 -0.000592034 0.000582516 
-0.000416042 0.000248434 -0.000130276 6.13882e-05 -2.63092e-05 1.03173e-05 -3.70858e-06 1.2188e-06 -3.63285e-07 9.6711e-08 
-2.24894e-08 4.91109e-09 -1.03353e-09 2.15974e-09 2.38004e-09 9.74343e-09 2.3613e-08 6.25437e-08 1.54822e-07 3.71477e-07 
8.53402e-07 1.87367e-06 3.91149e-06 7.72049e-06 1.43048e-05 2.46528e-05 3.9043e-05 5.58812e-05 7.0534e-05 7.54549e-05 
6.33651e-05 3.37706e-05 -1.37581e-06 -2.14702e-05 -1.46329e-05 5.54195e-06 1.23169e-05 8.87853e-06 1.29943e-05 -0.000187278 
-0.000546839 0.000314173 0.00212778 0.00501241 0.00716633 0.00496681 -0.00427013 -0.0179848 -0.0263978 -0.0191277 
0.00198508 0.0185762 0.0124657 -0.0105452 -0.0239654 -0.0145749 0.00161115 0.00982249 0.0174201 0.0207717 
-0.00446225 -0.0399051 -0.0263655 0.0176348 0.00825547 -0.0258927 0.0073534 0.0425726 -0.00664017 -0.0310441 
0.0149471 0.00269861 -0.0277252 0.0215125 0.026699 -0.0291073 -0.0137331 0.0193754 0.0065533 -0.00854323 
-0.00717351 0.00781093 0.00196721 -0.00294864 -0.00187784 -0.000776929 0.0106528 -0.0161062 0.0100998 0.00348856 
-0.0158197 0.0208898 -0.01828 0.0113042 -0.00388927 -0.00145596 0.00406151 -0.00449643 0.00374183 -0.00262584 
0.00162434 -0.000906122 0.000462074 -0.000217329 9.48522e-05 -3.85742e-05 1.4656e-05 -5.20893e-06 1.73089e-06 -5.35507e-07 
1.51921e-07 -3.75596e-08 5.89784e-09 3.07308e-10 -4.44646e-09 -4.92181e-09 -1.85518e-08 -4.48423e-08 -1.13541e-07 -2.71203e-07 
-6.22441e-07 -1.36131e-06 -2.82571e-06 -5.53287e-06 -1.01436e-05 -1.72451e-05 -2.68427e-05 -3.75774e-05 -4.60671e-05 -4.72968e-05 
-3.71125e-05 -1.65643e-05 5.22174e-06 1.50994e-05 7.82243e-06 -5.54134e-06 -8.9332e-06 -1.23645e-06 2.99544e-05 9.95074e-05 
0.000461005 0.00115989 0.00130428 3.32321e-05 -0.00400735 -0.010296 -0.0150131 -0.0120085 0.0014883 0.018222 
0.0228678 0.00714332 -0.0158369 -0.0210965 -0.00233556 0.0172891 0.0170245 0.00662771 0.00212495 -0.0021754 
-0.00452402 0.0169557 0.0407222 0.0101796 -0.0397745 -0.0188472 0.023967 -0.00715079 -0.0286927 0.0235422 
0.0246622 -0.0221104 0.00276587 0.0103796 -0.0312351 0.00834341 0.0361434 -0.0212831 -0.0212511 0.0179405 
0.0106604 -0.0127454 -0.00499993 0.0119306 -0.00627313 0.00251722 -0.00307811 0.000294537 0.00854103 -0.0180441 
0.0217987 -0.0178523 0.00866709 0.00162535 -0.0096273 0.0137543 -0.014178 0.0121235 -0.00903912 0.00602495 
-0.00364516 0.00202291 -0.00103784 0.000495228 -0.000220835 9.23669e-05 -3.63391e-05 1.34767e-05 -4.7213e-06 1.56809e-06 
-4.98366e-07 1.55455e-07 -5.00437e-08 1.88528e-08 -6.24602e-09 8.33454e-09 1.02958e-08 3.26356e-08 7.89077e-08 1.90446e-07 
4.36157e-07 9.52006e-07 1.96766e-06 3.8282e-06 6.95629e-06 1.16879e-05 1.79151e-05 2.45796e-05 2.93234e-05 2.8929e-05 
2.11451e-05 7.45869e-06 -5.61082e-06 -9.9866e-06 -3.80833e-06 4.60291e-06 4.92533e-06 -4.33986e-06 -1.37699e-05 7.63091e-05 
0.000233791 -0.00026579 -0.00132924 -0.00300513 -0.00405608 -0.00194589 0.00554339 0.0169632 0.0250266 0.0207525 
0.00397632 -0.0105983 -0.00528124 0.0174262 0.0313509 0.0177314 -0.00810514 -0.019401 -0.0163102 -0.0127432 
-0.00455092 0.00615683 -0.00449024 -0.0186407 0.0133477 0.0472455 0.00392114 -0.0392959 0.00420851 0.0223131 
-0.0272155 -0.0111293 0.0283384 -0.00320798 -0.00203396 0.0108245 -0.0286537 0.000911669 0.0354905 -0.0156148 
-0.0209918 0.0154828 0.0113459 -0.01638 0.00121719 0.0107821 -0.0129362 0.012171 -0.0118073 0.00941586 
-0.00337073 -0.00488103 0.0130022 -0.0194429 0.023371 -0.0243516 0.0224939 -0.0185905 0.0138401 -0.00934458 
0.00576223 -0.00326758 0.00171507 -0.000838145 0.00038333 -0.000164788 6.68115e-05 -2.56044e-05 9.27896e-06 -3.17028e-06 
1.01053e-06 -2.92056e-07 7.02435e-08 -9.96167e-09 -4.34294e-09 8.8165e-10 -1.05034e-08 -2.00738e-08 -5.3846e-08 -1.28082e-07 
-2.94426e-07 -6.41844e-07 -1.32314e-06 -2.56201e-06 -4.6225e-06 -7.69025e-06 -1.16312e-05 -1.56732e-05 -1.82338e-05 -1.73092e-05 
-1.17422e-05 -2.93249e-06 4.68602e-06 6.3065e-06 1.65028e-06 -3.33175e-06 -2.44653e-06 2.02922e-06 -7.89616e-06 -5.04095e-05 
-0.000231613 -0.000579337 -0.000638341 0.000171091 0.00275902 0.00696255 0.0102592 0.00782412 -0.00374977 -0.0205505 
-0.0303682 -0.0231562 -0.00585684 -0.000465406 -0.0177485 -0.037532 -0.0315947 -0.00404268 0.0153642 0.0157754 
0.00784329 -0.00795661 -0.0247933 -0.0146926 0.00709162 -0.00930531 -0.0246858 0.0210834 0.0401307 -0.0189651 
-0.0226652 0.0278122 -0.00268124 -0.0296002 0.0124058 0.0108459 0.00169308 0.00525432 -0.0248465 0.00275064 
0.0267525 -0.0130052 -0.0136945 0.0105536 0.00964643 -0.0171884 0.00962702 0.000394432 -0.00788198 0.0144965 
-0.0197819 0.0214267 -0.0196983 0.0175296 -0.017137 0.0181457 -0.0187004 0.0174596 -0.0144501 0.0106193 
-0.00699331 0.00417108 -0.00227619 0.00114699 -0.000538077 0.000236674 -9.82138e-05 3.86692e-05 -1.45321e-05 5.25435e-06 
-1.85034e-06 6.46505e-07 -2.29229e-07 8.43617e-08 -3.1336e-08 1.42895e-08 4.4519e-10 1.54068e-08 3.38825e-08 8.34451e-08 
1.91437e-07 4.17875e-07 8.6045e-07 1.66106e-06 2.98119e-06 4.92052e-06 7.35899e-06 9.76122e-06 1.10991e-05 1.0155e-05 
6.36717e-06 8.56728e-07 -3.47488e-06 -3.84356e-06 -5.8625e-07 2.29395e-06 1.54061e-06 1.84731e-07 3.20514e-06 -3.15e-05 
-0.00011026 0.000121114 0.000686206 0.00164118 0.00231054 0.00100865 -0.0041942 -0.0131305 -0.0209794 -0.0195558 
-0.0049676 0.0141192 0.0206347 0.00873802 -0.00340656 0.00651028 0.0307841 0.0371676 0.0160115 -0.00536384 
-0.00672221 0.004161 0.01978 0.0291531 0.00721545 -0.0252291 -0.013414 0.00779192 -0.017268 -0.015362 
0.0321863 0.0106507 -0.0281564 0.0144323 0.0168431 -0.0281156 -0.00572272 0.0158246 0.00959832 -0.00395975 
-0.020066 0.0110249 0.0101999 -0.00700004 -0.0048103 0.000689678 0.0113531 -0.0154542 0.0130011 -0.011812 
0.0112198 -0.00604173 -0.00341297 0.010914 -0.0112917 0.00499358 0.00345718 -0.00963857 0.0117856 -0.010632 
0.00791356 -0.00509681 0.0029182 -0.00151257 0.000719587 -0.000317727 0.000131383 -5.12062e-05 1.88564e-05 -6.53577e-06 
2.10313e-06 -6.08692e-07 1.46722e-07 -2.23713e-08 -3.66473e-09 3.54802e-09 -5.74243e-09 -7.39643e-09 -2.18086e-08 -5.1971e-08 
-1.20259e-07 -2.62966e-07 -5.41829e-07 -1.04465e-06 -1.86855e-06 -3.06599e-06 -4.54419e-06 -5.94741e-06 -6.62599e-06 -5.85466e-06 
-3.37807e-06 -1.39083e-08 2.3971e-06 2.27683e-06 1.03707e-07 -1.55525e-06 -9.77587e-07 4.21375e-07 4.37071e-06 1.98809e-05 