# vtk DataFile Version 2.0
Titre
ASCII
DATASET STRUCTURED_POINTS
DIMENSIONS 100 100 1
ORIGIN 0.0 0.0 0.0
SPACING 0.1 0.1 0.0
POINT_DATA 10000 
SCALARS rho float
LOOKUP_TABLE default
-0.000249838 -0.00109754 -0.00174107 -0.00173319 -0.00238984 -0.000630226 0.000626821 0.00271623 0.00255498 0.00189044 
6.38446e-05 -0.000335518 -0.000195157 0.000714323 0.000508729 0.000322537 -8.14312e-05 0.000205759 -0.000111021 -0.00039685 
-1.48096e-05 0.000843416 9.56814e-05 -0.00076847 -5.9094e-05 0.000855485 -8.58847e-05 -0.000645381 0.000144278 0.000541016 
-0.000352078 -0.000407171 0.000414452 5.91953e-05 -0.000543258 0.000257197 0.000114717 -0.000366595 9.70939e-05 0.000158241 
-0.000317733 0.000163671 2.3382e-05 -0.000173108 0.000176023 -0.000102422 1.87856e-05 2.53103e-05 -4.11009e-05 1.03402e-05 
-1.38858e-05 -1.48304e-05 -6.03786e-06 -1.13953e-06 -8.5624e-06 1.83151e-05 5.19839e-06 2.62723e-05 2.34087e-05 1.74456e-05 
2.1092e-05 -5.44674e-06 5.39711e-07 -2.26e-05 -1.24193e-05 -1.85048e-05 -3.7499e-06 6.33116e-06 3.14082e-05 6.44998e-05 
0.000121592 0.000201608 0.000319752 0.000467641 0.000649578 0.000833471 0.000993958 0.00106571 0.000997276 0.000732519 
0.00026613 -0.000341571 -0.000971845 -0.0014421 -0.00164844 -0.00154432 -0.00128026 -0.000992138 -0.000766326 -0.000451999 
7.50015e-05 0.000770324 0.00100981 0.000594432 -0.000348158 -0.000357588 0.000520584 0.00141279 0.000802114 -0.000333548 
0.00151451 -0.000455357 0.000170692 -0.000453478 0.00078403 0.00110671 0.0020968 0.000903532 0.000578437 -0.000642314 
0.00011796 0.000736618 0.00151002 0.000409867 -9.84465e-05 -0.000479409 0.000259493 -1.77486e-05 -0.00041294 -0.000213595 
0.00121547 4.08531e-05 -0.00136981 -0.000270918 0.00165266 -0.000306663 -0.00126387 0.000184292 0.00117485 -0.000677899 
-0.00076719 0.000692024 0.000454034 -0.0010081 0.000202043 0.000733096 -0.00077927 -8.65924e-06 0.000674184 -0.000695538 
0.000221994 0.000226171 -0.000313238 0.000136097 0.000113491 -0.000217574 0.000152875 -4.66682e-05 -8.40795e-05 0.000100209 
-8.21969e-05 4.10042e-05 2.49226e-05 -1.49516e-05 3.73456e-05 -5.55067e-06 -1.03256e-05 9.30705e-06 -3.51944e-05 2.83055e-06 
-2.66853e-05 -1.02846e-05 -1.01422e-05 -1.57103e-05 4.57236e-07 -1.36337e-05 1.19118e-06 -1.8376e-05 -2.17321e-05 -5.84859e-05 
-9.6774e-05 -0.000165074 -0.000242102 -0.000330512 -0.000405159 -0.000440352 -0.000406055 -0.000271805 -4.33899e-05 0.000249827 
0.000512411 0.000639395 0.000527986 0.000170296 -0.000322027 -0.000752235 -0.000945663 -0.000920869 -0.000894696 -0.00107653 
-0.00140957 -0.00139423 -0.000718899 0.000399101 0.00096896 0.000732627 0.000308209 0.000521851 0.000455242 0.000367325 
-0.00195524 -0.00343036 -0.00311455 -0.00163122 -0.000781082 0.00200559 0.00259548 0.00327032 0.00268869 0.00105005 
0.000236893 -0.000775654 -0.00098024 -0.000661261 0.000394666 0.000590366 0.00035801 -0.000507753 -0.000531938 0.000697464 
0.000314549 -0.00117912 -0.000284711 0.00166094 -0.000325778 -0.00156029 0.000579941 0.00126373 -0.000841967 -0.000860942 
0.000883211 0.000581627 -0.00109627 -6.75364e-05 0.00119399 -0.000853005 -0.000378159 0.00101988 -0.000506616 -0.000445162 
0.00092143 -0.000603144 -5.7153e-05 0.00052862 -0.000593535 0.000313443 -3.51727e-05 -0.000152996 0.000171657 -7.83001e-05 
3.33767e-05 3.88997e-05 -1.80825e-05 -3.98203e-06 -3.00277e-07 -4.66816e-05 -7.67399e-06 -2.65819e-05 -2.71607e-05 6.99346e-06 
-3.1013e-05 2.06908e-05 -2.00715e-05 1.85226e-05 -5.91107e-06 1.40471e-05 9.53551e-06 2.52585e-05 4.79816e-05 8.77685e-05 
0.000157399 0.000251705 0.00038258 0.000530016 0.000682905 0.000798375 0.000838706 0.000753394 0.000518347 0.00013223 
-0.000354824 -0.000866403 -0.00130987 -0.00162738 -0.00180657 -0.00186734 -0.00180919 -0.00156227 -0.0010272 -0.000242023 
0.000545664 0.000841406 0.000344032 -0.000601216 -0.00126917 -0.000590018 0.000950884 0.00219559 0.00113498 -0.00158823 
-0.000960173 -0.000483813 0.000565161 0.00104939 0.00142532 0.00201615 0.000489966 0.000144128 -0.00188189 -0.00174078 
-0.000920194 0.000565536 0.00109291 0.00145147 -6.62026e-05 -0.000472523 -0.000718353 -0.0003701 7.43038e-05 0.000892378 
-0.000471865 -0.000258333 0.000596619 3.62518e-05 -0.00133284 0.00115002 0.000654939 -0.00103471 -0.000517887 0.00127874 
-9.9481e-05 -0.000804825 4.84237e-05 0.000981932 -0.000590029 -0.000663089 0.00108829 -0.000155454 -0.00102241 0.00127804 
-0.000520174 -0.000420883 0.000756546 -0.000458367 -0.000123349 0.000472869 -0.000451355 0.00022899 7.80793e-05 -0.000196743 
0.000209956 -0.000142467 1.42723e-05 -3.05666e-07 -5.11913e-05 1.84148e-05 1.37485e-05 3.5732e-06 6.00034e-05 1.98991e-05 
5.92134e-05 5.45152e-05 5.0867e-05 8.39119e-05 5.48216e-05 9.72987e-05 5.84451e-05 8.1209e-05 2.52255e-05 -5.43068e-07 
-0.000100158 -0.000197668 -0.000353157 -0.000499888 -0.000648701 -0.000725764 -0.000711961 -0.000558416 -0.000287007 5.35146e-05 
0.000347272 0.000475505 0.000358611 2.25918e-05 -0.000389312 -0.000701642 -0.00082445 -0.000872221 -0.00104566 -0.00139351 
-0.00162784 -0.00108605 9.63022e-06 0.00123642 0.00083454 -0.000382344 -0.00109624 0.000552302 0.00215805 0.00101313 
-0.00229932 -0.000937464 -0.00043557 -0.000703309 0.00104981 0.00116909 0.00256522 0.00220508 0.00189605 0.00118208 
0.000617832 -0.00109783 -0.00107764 -0.0014307 -0.000433591 0.000774536 0.000788583 -0.000465573 0.000449391 0.000200812 
-0.000347146 -0.000417382 0.000434519 -0.000347027 0.000915628 8.36286e-05 -0.00140918 0.000372631 0.00155216 -0.00102737 
-0.000903898 0.00119306 0.00014725 -0.000668027 -0.000256438 0.000955176 -0.00031231 -0.000745138 0.000826769 0.000132294 
-0.00106077 0.00102101 -0.00017768 -0.000709157 0.00103427 -0.000677761 0.000128105 0.000335435 -0.000458076 0.000309675 
-0.00013394 -7.14326e-05 0.000116028 -0.000100701 8.29257e-05 8.64862e-06 1.70303e-05 1.8938e-05 -4.48487e-07 -4.33733e-05 
-1.85586e-05 -0.000107167 -7.23758e-05 -0.000162626 -0.000154873 -0.000217408 -0.000230124 -0.000246812 -0.000237888 -0.000183208 
-9.98165e-05 5.00976e-05 0.000226315 0.000438616 0.000625489 0.000754772 0.000764137 0.000624839 0.000336283 -5.77288e-05 
-0.000477245 -0.000849453 -0.00114086 -0.00137854 -0.0016128 -0.00181657 -0.00184289 -0.00146823 -0.000638166 0.000389868 
0.000847429 0.000624754 -0.000477512 -0.000916446 -0.000832387 4.21449e-06 0.0004988 0.0011339 0.00152207 -5.03873e-05 
-0.00227145 0.00223373 -0.00139376 0.000264022 -0.000679306 -0.000490006 -0.000696319 -0.00201682 -0.00230648 -0.00178263 
-0.00131344 0.000520915 0.00189275 0.0016959 0.00115358 5.16719e-05 -0.00186973 -0.000793488 0.00118251 0.00025697 
-0.000562655 0.000207047 0.000669983 -0.000242523 4.70595e-05 -0.00121973 0.000968779 0.0013657 -0.00152947 -0.00119485 
0.0023837 -0.000236001 -0.00173644 0.000900993 0.000938375 -0.00110387 -0.000128996 0.00068377 0.000145477 -0.00115283 
0.00106103 4.84071e-06 -0.00091028 0.000943009 -0.000172334 -0.000627945 0.000911672 -0.000674971 8.84995e-05 0.000315477 
-0.000509733 0.000434271 -0.000200317 4.83177e-05 0.000100096 -0.000113489 7.65427e-05 -5.83089e-05 -5.48959e-06 1.27787e-05 
1.75723e-05 6.14142e-05 0.000124019 0.00013843 0.000265702 0.000264305 0.000405002 0.000386442 0.00046941 0.000388044 
0.000344792 0.000150652 -3.35463e-05 -0.000306323 -0.000517711 -0.000692494 -0.000708038 -0.000589234 -0.000314979 9.96104e-06 
0.00029604 0.00042583 0.000365179 0.000147855 -0.000129351 -0.000406098 -0.000678967 -0.00102053 -0.00143786 -0.00150858 
-0.0013103 -5.56873e-05 0.000797701 0.00142653 0.000300229 -0.00109932 -0.00178992 -0.000205312 0.00242938 0.00252477 
0.000936739 0.0018027 -0.000521714 0.00104247 0.000694754 0.00232513 0.00259158 0.0022188 0.00245633 0.001482 
-0.000267645 2.25954e-05 -0.00216167 -0.00170686 -0.00089167 0.000213907 -4.28837e-05 0.00219889 0.000531866 -0.00090152 
-0.000718003 0.000969614 -0.000672996 9.5166e-05 6.64624e-05 0.000342725 0.000574592 -0.00116689 -0.000770561 0.00217579 
6.67258e-05 -0.00280173 0.00186374 0.00114246 -0.00188082 -0.000154503 0.00176415 -0.00105074 -0.000559695 0.000934992 
0.000110163 -0.00105696 0.00082645 0.000269066 -0.00118629 0.00114025 -0.00042055 -0.000454229 0.000882487 -0.00072627 
0.000351706 0.000154355 -0.000353393 0.000406677 -0.000298045 0.000117944 -2.93477e-05 -5.99995e-05 4.58012e-05 -5.15295e-05 
-2.90085e-05 -5.1709e-05 -0.000146912 -0.000157578 -0.000290529 -0.000348989 -0.000457516 -0.000538296 -0.000567961 -0.000577705 
-0.000464902 -0.00031778 -5.11029e-05 0.000217463 0.000499186 0.000676446 0.000718201 0.000581335 0.000290159 -7.32528e-05 
-0.000423213 -0.000672655 -0.000831042 -0.000943982 -0.00107806 -0.00120492 -0.00116522 -0.000721177 -0.000166113 0.000734081 
0.000505907 0.000377699 -0.000603571 -0.000291661 0.000192584 0.000632222 -3.13492e-05 -0.000585113 0.000425117 0.00199964 
7.49992e-05 -0.000696774 -0.00201935 -0.00210104 -0.00159712 -0.00197591 -0.00124208 -0.00283007 -0.000705838 -0.00286389 
0.000368461 0.00101596 0.00195931 0.00277571 0.00253392 -0.00103688 -0.00114064 -0.000666812 -0.000665858 -0.000278127 
0.00119991 5.36281e-05 -0.00048611 0.000993393 -0.000592408 -0.000487083 1.59323e-05 0.000328884 0.00071625 -0.000259186 
-0.00179404 0.00146394 0.00149363 -0.00255666 5.05442e-06 0.00251955 -0.00181519 -0.000664442 0.00161898 -0.00030859 
-0.00122778 0.0011889 6.1895e-05 -0.0010429 0.000793566 0.000257812 -0.00108142 0.00116131 -0.000444863 -0.000342726 
0.0008406 -0.000897256 0.000484563 -0.000172231 -0.000256456 0.000296156 -0.000354813 0.00020674 -0.000127001 3.68451e-05 
2.9344e-05 4.6624e-05 0.000114647 0.000213291 0.000249854 0.000450751 0.000454078 0.000663245 0.000607319 0.000698298 
0.000508153 0.000393429 4.69692e-05 -0.000211793 -0.000555549 -0.000704955 -0.000765179 -0.000579484 -0.000295368 6.61197e-05 
0.000330624 0.00044395 0.000374611 0.000189665 -1.15809e-05 -0.000226766 -0.000558837 -0.000704767 -0.0013043 -0.000729267 
-0.000633693 0.000817205 0.00107367 0.00116566 0.000169261 -0.000719606 -0.00113127 -0.000578942 0.000886522 0.00169312 
0.000815713 0.000231186 -0.000256739 0.000959429 0.000892676 0.00243446 0.00193201 0.00255474 0.0016118 -0.000416051 
0.000504869 -0.00234091 -0.00248038 -0.00165839 -0.00188097 -0.0017816 0.00218218 0.00194482 0.00108998 -0.000498844 
-7.08941e-05 -0.00147998 0.000901391 2.27734e-05 -0.000933723 0.000843241 0.000854766 -0.000647764 -0.00107016 0.000463971 
0.000856077 0.000582971 -0.00238051 0.000833683 0.00193855 -0.00159299 -0.00139588 0.00284675 -0.00106208 -0.00144564 
0.00180447 -0.000159929 -0.00129296 0.00111987 0.000186301 -0.0011115 0.000952284 1.15485e-05 -0.000917981 0.00107723 
-0.000675486 -8.26979e-05 0.000653194 -0.000764372 0.00077306 -0.000248705 0.000195895 0.000288072 -9.12144e-05 0.000344556 
-5.21691e-05 0.000152301 -3.22171e-05 -8.82825e-05 -0.000200113 -0.000353494 -0.000494733 -0.000602018 -0.000716885 -0.000665932 
-0.000619848 -0.000350791 -9.65436e-05 0.000289529 0.00057118 0.000779669 0.000781233 0.000593735 0.000277688 -8.2823e-05 
-0.000331217 -0.000441648 -0.000407722 -0.000391481 -0.000439265 -0.000479707 -0.000779879 -0.000135243 -0.000389892 0.000758652 
0.000169013 0.000468457 -9.39547e-05 0.000238068 0.000641901 0.000717818 -8.75149e-05 -0.00102622 -0.000356547 0.00173866 
0.00219464 -0.00175697 0.000191018 -0.00171538 -0.0010257 -0.000616658 -0.0011815 0.000559345 -0.00186828 0.00102194 
0.00100803 0.00178461 0.00326609 0.00453204 0.000393397 0.000543085 -0.00081979 -0.00189891 -0.00229235 0.000282785 
0.000420317 0.000784356 0.00102808 -0.00085753 -0.000152383 0.000618068 -0.000879597 -0.000581913 0.0012172 0.000815058 
-0.00130991 -0.00101779 0.00143879 0.00118991 -0.00211874 -0.00056895 0.00276441 -0.0011867 -0.00190315 0.00247768 
-0.000138933 -0.00209174 0.00195003 -5.78439e-05 -0.00136647 0.00115317 8.58835e-05 -0.00109198 0.00102084 -0.000176582 
-0.00071173 0.00115677 -0.000878294 0.000293775 0.000240823 -0.00078337 0.000546506 -0.00083406 5.7942e-05 -0.000458488 
-0.000351879 -0.00023343 -0.000358976 -0.000113165 -6.23788e-05 0.000110435 0.000363778 0.000430634 0.000700207 0.000596503 
0.000673651 0.000330694 0.000159148 -0.00031823 -0.000525662 -0.00081077 -0.000730329 -0.000601115 -0.000243616 2.9773e-05 
0.000216366 0.000187913 6.60686e-05 -8.58742e-05 -0.000238849 0.000121434 -0.00052073 0.000233111 -0.000989725 -1.15121e-05 
-0.000246898 0.000941841 0.00122041 0.00109822 0.000411483 -0.000200501 -0.00043438 -0.000473302 -0.000200347 0.000907533 
0.000648859 -0.0031138 0.0012148 -0.00318539 0.00104923 -0.00119852 0.00150906 -0.000611042 -0.00127112 -0.000747357 
-0.00334115 -0.00371453 -0.00186662 -0.00309944 -0.00322016 0.000369492 0.00155795 0.00249316 0.00186234 0.00145531 
-0.00187388 -0.000344493 -0.000799887 -0.000347205 0.000559486 0.000108277 0.000358663 0.000191013 4.76329e-05 -0.00146423 
0.000474661 0.00123277 0.000370085 -0.00260634 0.00104484 0.00199321 -0.00155913 -0.00164551 0.00278083 -0.000242701 
-0.00256169 0.00229708 0.000401769 -0.00246211 0.00202593 -9.71558e-05 -0.00140109 0.00131563 -0.00020031 -0.000806533 
0.000980931 -0.000385506 -0.000494597 0.000982146 -0.00104018 0.000709052 -5.97393e-06 -7.74108e-05 0.000893562 -0.000161049 
0.00102906 0.000205582 0.000777727 0.00040576 0.000425168 0.000200812 -3.3329e-06 -0.000261793 -0.000408247 -0.000602162 
-0.00049808 -0.000448831 -8.02854e-05 0.000177202 0.000540406 0.00069059 0.000692103 0.000514901 0.000202795 -1.21832e-05 
-0.00013495 -6.38688e-05 8.41767e-05 0.000280268 -0.000278337 0.000300059 -0.00113677 0.0003207 -0.000606432 0.000747509 
0.000366064 0.000526658 0.000347053 0.000446677 0.000719097 0.000650246 2.22698e-05 -0.000714134 -0.000551226 0.000299989 
-0.000720346 0.000103146 0.000357608 -0.000531639 0.000635775 0.00123408 0.00192252 0.00112691 0.00224127 0.00307826 
0.00125032 0.00411573 0.00517185 0.00141082 0.00187166 -0.000542548 -0.00141453 -0.00354439 -0.00182121 -0.00175209 
0.000420239 0.00222818 0.000807967 0.000190964 -0.000328147 -0.000458674 0.00010354 -0.00101887 0.000476012 0.000975122 
0.000229642 -0.00102302 -0.00092612 0.00127262 0.00150321 -0.00247205 -0.000485669 0.0028493 -0.00105592 -0.00219776 
0.00239177 0.000552719 -0.00291342 0.00208942 0.00073462 -0.00261019 0.0021958 -0.000220134 -0.00124834 0.0014869 
-0.000514047 -0.000451466 0.000934537 -0.000532672 -7.29683e-05 0.000791083 -0.00106883 0.000857405 -0.000864314 -0.000139098 
-0.00042441 -0.000931317 -0.000353093 -0.00105467 -0.000396787 -0.000659486 -0.000203655 -2.72492e-05 0.000182128 0.000475718 
0.000361194 0.000468873 2.48082e-05 -5.86355e-05 -0.000552944 -0.000522027 -0.000668195 -0.000344712 -0.000186969 6.50511e-05 
9.37323e-05 -7.95653e-05 -0.000420361 3.46434e-05 -0.000951238 0.00097146 -0.000731823 0.000879567 -0.000653922 -8.06958e-05 
-4.98984e-05 0.000691143 0.0012586 0.0011424 0.000569276 3.27287e-05 -0.00017974 -0.000307901 -0.000159473 0.000679707 
0.00289613 -6.39652e-05 0.000718237 -0.00138578 -0.00127014 0.000197052 -0.00268946 -0.000981957 -0.00278927 -0.00269216 
-0.00619518 -0.000722179 -0.00383923 -0.00243544 -0.000526321 0.000881473 0.00303025 0.00313535 0.00367989 0.000379907 
0.000290276 -0.00203601 -0.00174138 -0.000542456 -0.000130153 0.00145436 9.67666e-05 -5.95981e-06 0.000529318 -0.000634447 
-0.00166781 0.00175065 0.000489998 1.57121e-05 -0.00192376 0.000432248 0.00262957 -0.00204869 -0.00156227 0.00292639 
-0.000259398 -0.00260382 0.00199721 0.00122055 -0.00326486 0.00219903 0.000658585 -0.00271081 0.00244433 -0.000903822 
-0.000860046 0.00119276 -0.000867556 -0.000227069 0.000573345 -0.000787436 0.000109599 0.000346597 -0.000811078 0.00122492 
-0.000650217 0.00126991 0.000135662 0.000971641 0.000611507 0.000594925 0.000441823 0.000127035 -0.000102042 -0.000279248 
-0.000450402 -0.000277366 -0.000205081 0.000183213 0.000366942 0.000535675 0.000506941 0.000264971 9.09925e-05 -0.000205176 
-4.15132e-05 0.000253742 -0.000175374 0.00134997 -0.00108092 0.001069 -0.00145579 0.000246604 -0.000229931 0.000511973 
0.000641943 0.000467936 0.000432336 0.00053693 0.000720135 0.000589342 3.96844e-05 -0.000608564 -0.000665158 0.000815919 
0.000963535 -0.00296151 0.000223998 -0.00361986 0.000946792 -0.000493308 0.000810035 0.00228667 0.00256814 0.000888127 
0.00186648 0.00469138 0.000204205 0.00180184 -0.00178319 -0.00189133 -0.00403601 -0.00336603 -0.00376859 -0.00147914 
0.000803223 0.00162944 0.00298592 0.000719429 -0.000558541 0.000224691 -0.00210229 -4.79729e-06 0.000636868 -0.000266949 
0.00117872 0.000494752 -0.00238281 0.000438858 0.0011618 0.000737455 -0.00167956 -0.00115396 0.00346134 -0.00136755 
-0.00237469 0.00282616 0.000193962 -0.00260457 0.00145787 0.00169093 -0.00357835 0.00242605 0.000445136 -0.00259111 
0.00302897 -0.00151151 0.000252923 0.00100008 -0.000508088 0.000351307 0.000715521 -0.000533207 0.000725058 -0.000106705 
-0.000399508 0.000420624 -0.00126342 0.000337819 -0.00133293 7.92697e-05 -0.000779695 0.000124357 -2.04794e-06 0.000351605 
0.000490844 0.000272927 0.00034687 -0.000248292 -0.000149014 -0.000612444 -0.000266839 -0.000291202 0.000197575 0.000146087 
-4.51167e-05 0.00057955 -0.00166739 0.0012557 -0.00189407 0.00147076 -0.000349825 0.000585731 -0.000107512 -0.000395128 
-6.67609e-05 0.000476652 0.00105504 0.00106892 0.000575368 7.37712e-05 -0.000124911 -0.000211223 -0.000406676 -0.000481664 
-0.00165394 0.00125841 -0.000954085 0.000687786 0.000658425 -0.000193264 0.000756652 0.000594906 -7.96401e-05 -0.00376071 
0.00117618 -0.0014428 0.000769857 0.00120943 0.0021421 0.0041721 0.00448304 0.00483366 0.00252616 0.00208556 
-0.00177007 -0.00218894 -0.00192913 -0.00349254 0.00106785 0.00143467 0.00029468 0.0014938 0.000130322 -0.00198472 
0.000809557 -0.00151722 0.0013414 0.00166669 -0.00190553 -0.000769083 0.000691983 0.00171824 -0.00118958 -0.0023265 
0.00361057 -0.000588317 -0.0028481 0.00263561 0.000523861 -0.00253343 0.00132388 0.00187754 -0.0037244 0.00297906 
-0.0003987 -0.0021594 0.00280639 -0.00261528 0.000801364 -0.000452141 -0.000606861 -0.000394482 0.00018363 -0.00117116 
0.000901706 -0.000903623 0.000790225 2.50271e-05 0.000405179 0.000548585 1.72101e-05 0.000293611 -0.000383744 -0.000300802 
-0.000576661 -0.000497462 -0.00028553 -5.94111e-05 0.000207206 0.000406603 0.000213678 9.13024e-05 -0.00021642 1.2021e-05 
-0.00113679 0.00183123 -0.00185423 0.00264819 -0.0014599 0.000670527 -0.000791863 -0.000413319 0.000158256 0.000384029 
0.000594287 0.00040995 0.000318351 0.000494503 0.000676983 0.000494212 -6.99697e-05 -0.00057831 -0.000350863 0.000667215 
0.0042363 0.00241477 -0.000138785 0.00240481 -0.00277969 0.000618977 -0.00124195 0.00132167 -0.00247227 -0.00177062 
0.000187976 -0.00332863 -0.000224536 -0.00521179 -0.00368755 -0.0054373 -0.00466071 -0.00490543 -0.00224129 -0.000291591 
0.000432216 0.00463495 0.00312323 0.000728365 0.00261222 -0.00263328 -0.0022702 -7.95389e-05 -0.000817304 0.000885211 
0.00214972 -0.00131165 0.00075335 -0.00191556 -0.000294372 0.00292766 -0.00123223 -0.000961301 -0.000526899 0.00235751 
-0.000314793 -0.00340548 0.00381107 -0.000372375 -0.00276651 0.00223472 0.00064961 -0.00254802 0.00117035 0.00174125 
-0.00410297 0.00387849 -0.00174837 -0.000512041 0.00249183 -0.00207842 0.00226894 -0.000465892 0.000942625 6.81712e-05 
0.000977477 -0.000831727 0.00132233 -0.00159773 0.00110958 -0.00152679 0.000740429 -0.000765994 0.000683042 0.000170032 
0.000694358 0.000641128 0.000302712 0.000407545 -0.000341174 2.98403e-05 -0.000258988 5.14416e-05 -4.03195e-05 0.00147262 
-0.00195909 0.00275404 -0.00321501 0.00155231 -0.00123282 0.000474808 0.000620497 0.000203101 7.55685e-05 -0.00037506 
-0.000238035 0.000291451 0.000779594 0.000862306 0.000505779 7.17119e-05 -0.000165547 -0.000388845 -0.000707502 0.000602317 
0.00261191 -0.00419502 -0.000631404 -0.00320618 -0.0034049 -0.000764347 0.000332692 0.00152838 -0.0005789 0.00261292 
0.00137674 0.00377499 0.00489758 0.00319426 0.00607952 0.00532415 0.0045449 0.00311611 0.0024192 -0.0019043 
-0.00351247 -0.00162085 -0.0061653 -0.00210216 0.000669327 -4.90728e-06 0.00311531 0.00287382 -0.00167458 0.000516359 
-0.00238116 -0.000791729 0.00192393 -0.000258791 0.00147013 -0.00143858 -0.00203441 0.00303563 -0.00034454 -0.000622783 
-0.00153718 0.00227249 0.000846178 -0.00439592 0.00418791 -0.000562922 -0.00237685 0.00207943 0.000661768 -0.00224422 
0.00153918 0.00153559 -0.00391405 0.00478058 -0.00372137 0.00131377 -0.000141018 -0.00169934 0.00067623 -0.00141699 
-0.000122294 -0.00044564 -5.33641e-05 -0.000201322 0.000738103 -0.000352654 0.00109285 -0.000600746 0.000592395 -0.000867215 
-0.000178207 -0.000887977 -0.000352007 -0.000453101 9.07437e-05 -0.000284164 0.000484897 -0.000132014 -0.00146973 0.00229234 
-0.0038575 0.00369065 -0.002042 0.00164545 6.2121e-05 -0.000487866 -0.000252103 -0.000534713 3.58886e-05 0.000420081 
0.000458522 0.000281802 0.00016657 0.000341889 0.000561399 0.000396813 -0.000136862 -0.000541542 -0.000704653 -0.000967559 
-0.00315071 -0.000113536 0.000621404 6.57098e-05 0.0010265 0.00137679 0.00388711 -0.000802865 0.00145833 -0.00247769 
-0.00240047 -0.00125259 -0.00452436 -0.0046525 -0.00398079 -0.00369825 -0.00427729 3.70251e-05 0.00135775 0.00120046 
0.0053306 0.00626712 0.0013036 0.00510952 -0.000359924 -0.00264474 -0.00204974 -0.00319142 -0.00146602 0.00350217 
-6.66216e-05 0.00237612 -0.00102055 -0.00246232 0.00118597 -0.000955061 0.00253868 -0.000351889 -0.0031071 0.00245027 
0.000146743 0.000105587 -0.00229731 0.00203074 0.00160532 -0.00494916 0.00452687 -0.00116697 -0.00180332 0.00158987 
0.000447698 -0.00261571 0.00192152 7.65649e-05 -0.00316387 0.00481432 -0.00476534 0.00422313 -0.00194236 0.00188305 
-0.000175831 0.00117177 -0.000678085 0.00125269 -0.00161447 0.00104143 -0.00175094 0.000753181 -0.00100161 0.000736762 
7.49644e-05 0.00064266 0.000596444 0.000207131 0.000614039 -0.000473935 -4.04853e-05 0.0018332 -0.00337134 0.00529445 
-0.00447106 0.00292331 -0.00168101 -0.000547265 0.000242481 -0.000177872 0.000643636 0.000382999 -2.21404e-05 -0.00030304 
-0.000276954 0.000127109 0.000538955 0.000625177 0.000385855 4.97475e-05 -0.000234077 -0.000454884 -0.000385729 -0.000222178 
0.00238088 0.00656176 0.000866247 0.00357828 -0.00200386 0.00128657 -0.000516981 -0.00201752 0.00152457 -0.00458987 
0.00280274 0.00100822 0.000765424 0.00203441 0.00253895 0.000411615 -0.00130794 -0.000114913 -0.00445152 -0.00720516 
-0.00307292 -0.00680678 -0.00497137 -0.000129765 -0.00133758 0.00268308 0.00518948 0.00159448 0.00260554 -0.00197989 
-0.00421444 0.000543265 -0.00101236 0.00256435 0.0016567 -0.00267584 0.00107417 -0.00243726 0.00258925 0.00116101 
-0.00357703 0.00192494 -0.000104915 0.00123736 -0.00313801 0.00217314 0.00174099 -0.00509543 0.00514719 -0.0021822 
-0.000406734 0.00106531 0.00108056 -0.00264181 0.00362255 -0.00172837 -0.000449476 0.00274094 -0.00433495 0.00380261 
-0.00415947 0.00233436 -0.0025193 0.00163236 -0.00148086 0.00198902 -0.00109014 0.00207115 -0.0010667 0.0012843 
-0.0011766 0.000449654 -0.00126514 0.000105173 -0.000538252 0.000789668 -0.00281093 0.00500735 -0.0067724 0.00546245 
-0.00361488 0.00111486 0.00095304 -0.000383198 0.000798243 -0.000352839 -0.000458381 -0.000315867 -3.74659e-05 0.000321311 
0.000358534 0.000151869 2.93823e-05 0.000184803 0.000414349 0.000317782 -0.000170613 -0.00068884 -0.00079372 0.000705212 
0.00522136 -0.00102345 -0.00257213 -0.00308791 -0.00626026 -0.00103904 -0.00366993 0.00189956 -0.000990334 -0.00188119 
0.00416182 -0.000586366 0.000715666 0.00189791 0.00260475 0.00107166 0.00461626 0.00690397 0.00528629 0.00608813 
0.00968767 0.00176525 0.00512431 0.000581162 -0.00241602 -0.00254673 -0.00457118 -0.00575686 0.000978451 -0.000248177 
0.00492777 0.00320955 -0.00287961 5.73326e-06 -0.00298613 0.0006023 0.00318221 -0.00209096 0.00192077 -0.00352134 
0.00164741 0.00249394 -0.00370834 0.0018863 -0.00095774 0.00247652 -0.0040053 0.00269129 0.00117792 -0.00485069 
0.00547976 -0.00367367 0.000860713 -0.000417015 0.00107715 -0.00375653 0.00455649 -0.00495322 0.00340229 -0.00143223 
0.000354076 0.00126733 -0.000663901 0.000975504 -0.000298584 -0.000500034 2.42405e-05 -0.00125182 0.000204204 -0.000820759 
0.000261012 0.0003825 0.000407085 8.53249e-05 -2.06147e-05 0.00259776 -0.00550339 0.00725296 -0.00594248 0.00338241 
-4.24331e-06 -0.00144251 0.00100989 -0.00111446 -0.000105411 0.000226685 0.000265683 0.000359352 2.05758e-05 -0.000251748 
-0.000230707 4.9401e-05 0.000340381 0.000406241 0.000254597 2.9849e-05 -0.000204764 -0.000468479 -0.000887772 -0.000938257 
-0.00217714 -0.00399747 -0.000292114 -0.00199615 0.00230223 0.00156255 0.00468926 0.0061246 -0.00169535 0.00291079 
0.00101508 -0.00222973 -0.00249638 -0.00142351 -0.00487628 -0.00674049 -0.00525694 -0.00673013 -0.00953818 -0.0060574 
-0.00460434 -0.00565368 0.00185772 -0.000269741 0.00343911 0.00603464 0.00369531 0.00529998 0.00251566 -0.00484413 
-0.00237189 -0.00512761 0.000117581 0.00539788 -0.000818998 0.00205224 -0.00284598 -0.0018043 0.00313867 -0.00196224 
0.00328715 -0.00381031 0.000451538 0.00317121 -0.00354089 0.00207328 -0.00188322 0.0035642 -0.00497134 0.00395635 
-0.00037276 -0.00324567 0.00514596 -0.00394874 0.00242322 -0.000617031 0.00173673 -0.00276973 0.00522864 -0.0060601 
0.0061711 -0.00577854 0.00417564 -0.00371429 0.00267825 -0.00214164 0.00247291 -0.00139782 0.00234601 -0.00117375 
0.00133822 -0.00182893 0.00202523 -0.00228154 -0.00130003 0.00528031 -0.00781131 0.00676348 -0.00311065 -0.000633016 
0.00177568 -0.00153996 0.000785605 0.000437038 -5.50065e-05 8.99635e-05 -0.000310948 -0.000276619 -1.35266e-05 0.000195402 
0.000231025 7.55475e-05 -3.20518e-05 7.7604e-05 0.000272329 0.000227926 -0.000168673 -0.000576626 -0.000627082 -0.00121768 
-0.00247563 0.00613912 0.00337408 0.00457533 0.00329421 -0.00205857 0.00504999 -0.00372287 -0.00524899 0.000746284 
-0.00341522 -0.000992729 0.000427159 0.00424998 0.00175256 0.00492321 0.00684412 0.00626695 0.00404851 0.00653648 
0.000266482 0.000142469 -0.00207553 -0.00600013 -0.00439068 -0.0052573 -0.00789494 -0.0014916 -0.00288029 0.00308004 
0.00843591 0.00176007 0.00206784 -0.00436474 -0.00533593 0.00363604 -0.00125519 0.00373777 -0.000904592 -0.00292006 
0.00257952 -0.00286954 0.0047659 -0.00380453 -9.75826e-05 0.00294065 -0.0030726 0.0023139 -0.00271765 0.00450656 
-0.00619937 0.00585411 -0.00340125 -0.000318204 0.0023597 -0.00312007 0.00126674 -0.000503077 -0.00068972 -0.000508712 
0.00149502 -0.00284369 0.00382866 -0.00353787 0.00336993 -0.00249063 0.00132887 -0.00147905 -2.48553e-05 -0.000593448 
0.000781694 -0.0020571 0.00199399 0.00291486 -0.00831804 0.0119329 -0.0100079 0.00426421 0.000417696 -0.0022766 
0.00191239 -0.000420167 -0.000310668 5.76614e-05 -0.000260155 -4.17907e-05 0.000240543 0.000166442 4.73534e-05 -0.000130367 
-0.00015311 7.59319e-06 0.000184537 0.000234159 0.000156786 2.59674e-05 -0.000182072 -0.000498899 -0.000592468 0.000111428 
0.00446366 0.00625229 -0.00124219 0.000560059 -0.00880346 -0.0051351 0.000363226 -0.00832764 -7.80383e-05 0.00207552 
-0.00102859 0.0014367 0.00155967 0.000883045 -0.00195242 -0.00135926 -0.00105454 -0.00241306 -0.000723455 0.00224684 
0.00124097 0.00788372 0.00547595 0.00702712 0.00847772 0.00478622 0.00448327 0.00554437 -0.00353096 -0.00240335 
-0.00752999 -0.00816363 0.00347653 0.00217524 0.00601933 0.00167974 -0.00641409 0.00229619 -0.00342946 0.00334971 
0.00115298 -0.00291933 0.00272494 -0.00466835 0.00613432 -0.00396161 0.000203196 0.0019719 -0.00232892 0.00226761 
-0.00303316 0.00486959 -0.00684931 0.00784128 -0.00650644 0.00432489 -0.00143732 0.000875952 -0.000691523 0.00254876 
-0.00330524 0.00411204 -0.00390853 0.00300535 -0.00247848 0.00161047 -0.000710392 0.00102285 -0.000158776 0.000278665 
0.00154476 -2.67074e-05 -0.00654797 0.0137734 -0.0175825 0.0125225 -0.00350007 -0.00308756 0.00546454 -0.00362044 
0.0012064 -0.000244922 -0.000159343 9.00427e-05 0.000219021 3.56365e-06 -8.55729e-05 -0.000114146 -6.6457e-05 8.22877e-05 
0.000117458 4.70867e-05 -2.39142e-05 2.38884e-05 0.000149683 0.000149755 -0.000115498 -0.000528059 -0.000852911 -0.000137806 
0.002645 -0.00429136 -0.00252602 -0.0040707 -0.00678824 0.00606241 0.00399555 0.00208999 0.00843531 0.00469595 
0.00128772 0.00201198 0.000857304 -0.00152465 -0.000957855 -0.00301318 -0.0014904 -0.00509121 -0.00365474 -0.00835707 
-0.00843534 -0.00814414 -0.0117642 -0.00744497 -0.00530876 -0.00706715 -0.00049004 -0.000764301 0.000258532 0.0098067 
0.00610665 0.00690021 0.00179347 -0.0103083 -0.00299088 -0.00316354 0.00335144 0.00612989 -0.0047686 0.00330688 
-0.00468432 0.00145229 0.00219228 -0.00245212 0.00357247 -0.0065398 0.00718347 -0.00447542 0.00143054 0.000201193 
-0.000781014 0.0012463 -0.00203113 0.00353034 -0.00574428 0.00734494 -0.00807766 0.00658269 -0.00515704 0.00304031 
-0.00276058 0.00265592 -0.00325525 0.00387979 -0.00365942 0.00307363 -0.00252837 0.00177094 -0.00158785 -0.000822765 
-0.00176113 0.00894478 -0.0171852 0.0185408 -0.00829416 -0.004223 0.0117997 -0.0115298 0.00582999 -0.00152756 
-0.000592528 0.00104934 -0.000321666 0.000192421 -0.000190666 -2.61747e-05 -3.43247e-05 8.34259e-05 6.43046e-05 -2.50948e-05 
-6.30033e-05 -2.46187e-05 6.7708e-05 0.000119469 0.000101109 2.72008e-05 -0.000132767 -0.000385472 -0.00069531 -0.00139297 
-0.00452015 -0.0024742 0.00541782 -0.00144993 0.00586837 0.00933378 -0.000118121 0.00114395 -0.00119016 -0.00476061 
-0.00636673 -0.00329602 -0.00401495 -0.00139177 0.00129414 0.000750951 0.00547668 0.00563522 0.00921918 0.00721031 
0.0126653 0.00953368 0.00706014 0.00792909 0.00243351 -0.00153509 0.00204281 -0.00568133 -0.00468766 -0.00590262 
-0.0131086 -0.00284045 0.000317017 0.00691068 0.0124842 -0.00273877 -0.00140799 -0.00572105 -0.00217517 0.00626779 
-0.00414707 0.00544895 -0.0043548 -0.000154042 0.00178509 -0.00173952 0.00452006 -0.00796403 0.00796226 -0.00550868 
0.00343252 -0.00251869 0.00178327 -0.0012492 0.00076532 -1.76279e-05 -0.00125086 0.00320968 -0.00411742 0.00453879 
-0.003176 0.00172954 -0.000397759 -0.000436485 0.000593693 -0.000218132 -0.00139997 0.00254181 -0.000982625 0.00414945 