# vtk DataFile Version 2.0
Titre
ASCII
DATASET STRUCTURED_POINTS
DIMENSIONS 100 100 1
ORIGIN 0.0 0.0 0.0
SPACING 0.1 0.1 0.0
POINT_DATA 10000 
SCALARS rho float
LOOKUP_TABLE default
-0.00429469 -0.0014235 -0.00031602 -0.00154316 0.00222127 0.00351744 0.000872786 -0.00158244 -0.00181113 0.000733713 
0.00125156 8.57675e-05 -0.000256612 0.000562825 0.000831269 -0.000587548 -0.000893933 0.000170508 0.00108194 0.000218039 
-0.000528515 -0.000243288 0.000190987 0.000199992 -0.000195362 -0.000525963 -0.000461157 0.000221299 0.000415789 0.000187307 
-0.00027461 -0.000582575 -0.000575727 -2.34866e-05 0.000536386 0.00115462 0.00145907 0.00140262 0.000959893 0.000209141 
-0.000747294 -0.00162146 -0.0023327 -0.00263934 -0.0025291 -0.00201484 -0.00112955 -9.32019e-05 0.00104869 0.00204368 
0.00285322 0.00333925 0.00348354 0.00330771 0.00281182 0.00211682 0.0012303 0.000273464 -0.000732518 -0.00171827 
-0.00264262 -0.00348377 -0.00421659 -0.00486026 -0.00544096 -0.00600881 -0.00658558 -0.00720153 -0.00780161 -0.00836147 
-0.00876729 -0.00897081 -0.00884709 -0.00837792 -0.00751709 -0.00638084 -0.00504007 -0.00366985 -0.00237679 -0.00128093 
-0.00040403 0.000213833 0.000614436 0.000803064 0.000776247 0.000563446 0.000132723 -0.000413229 -0.00101166 -0.0013319 
-0.0014291 -0.00114919 -0.000858884 -0.000698726 -0.000214709 -0.000179881 -0.00010561 9.84143e-05 -0.00110062 -0.000698971 
-0.000960782 0.0056129 0.00350522 0.00436682 0.00444278 -0.0015442 -0.00350996 -0.00330253 0.000317211 0.00253871 
0.000687654 -0.000888295 -0.000835487 0.000933455 9.21087e-05 -0.000865409 -0.000417119 0.000620308 0.00014371 -0.00067517 
-9.69487e-05 -0.00014391 -0.000215264 -9.62627e-05 0.000146575 -0.000174255 0.000117184 1.43269e-05 -0.000435178 -0.000503827 
-0.00031333 -1.38087e-05 0.000777575 0.00132241 0.00148331 0.00124954 0.00036223 -0.000792165 -0.00182652 -0.00263189 
-0.00261803 -0.00204823 -0.000815453 0.000692253 0.00217048 0.0033316 0.00393314 0.00388144 0.00322902 0.00205424 
0.00058998 -0.000999775 -0.00250809 -0.00378611 -0.00474422 -0.00531745 -0.00550851 -0.00533703 -0.00485847 -0.00411236 
-0.00320041 -0.00212012 -0.00100197 0.000185913 0.00134069 0.0024668 0.00351046 0.00443908 0.00520785 0.005782 
0.00613927 0.0062459 0.00611161 0.0057177 0.00514328 0.00439413 0.00354417 0.00261841 0.00168207 0.000738313 
-0.000146733 -0.000944732 -0.00156504 -0.00190962 -0.00189909 -0.00155072 -0.000915079 -0.000287283 0.000125699 0.000150376 
2.27927e-05 -0.000110853 -0.000109642 -0.00039155 -0.000759086 -0.000454111 -0.000612713 0.000267432 -0.000262996 0.00272764 
-0.000608757 0.00206004 -0.00224225 0.000474075 -0.00283205 -0.00324676 -7.74426e-05 0.00209835 0.00363041 7.86488e-05 
-0.00204143 -0.00125977 0.00139668 0.000881238 -0.00140334 -0.00071024 0.000600412 0.000533615 -0.000974765 -3.3328e-05 
0.00025426 -0.000216415 4.78467e-06 0.000339846 -0.00016345 -0.00028216 9.26273e-05 -0.000579046 -0.000457283 -2.09362e-05 
0.000235662 0.000641932 0.00106306 0.000545775 0.00018046 -0.00058809 -0.00118039 -0.00117892 -0.000755911 0.00011117 
0.00125523 0.00198738 0.00242854 0.00208623 0.0011589 -0.000123517 -0.00169288 -0.00292869 -0.00392085 -0.00421806 
-0.00397162 -0.00315226 -0.00185651 -0.000379802 0.00128389 0.00276416 0.00411817 0.00511744 0.00578038 0.00609424 
0.00601771 0.00567308 0.00501725 0.00418683 0.00316561 0.00208429 0.000917162 -0.000172163 -0.00123498 -0.00212901 
-0.00288026 -0.00338463 -0.00366406 -0.00368844 -0.00349849 -0.00309624 -0.00255926 -0.00192842 -0.0012892 -0.000676699 
-0.000158785 0.000235747 0.000439227 0.000459605 0.000296697 3.46841e-05 -0.000221451 -0.000284921 -0.000244579 -0.000188495 
-0.000351851 -0.000433133 -9.15814e-05 0.000405828 0.000278265 0.000446151 -0.000120056 0.00118112 -0.00303762 0.00016594 
0.00120977 0.00260087 0.00231417 0.00375747 0.000266748 0.000778544 -0.000126584 -0.000671817 -0.00219721 -0.00259844 
-0.000284413 0.00184199 0.00107106 -0.00212368 -0.0011282 0.000859836 0.00072431 -0.00100275 -0.000403262 0.000914756 
-0.000388931 -0.000221056 0.000277859 3.45639e-05 -0.000550218 0.00033791 -0.000274416 -0.000560034 0.00016597 0.000312584 
0.000255891 0.000753903 0.000263067 -8.14519e-05 -9.94835e-05 -0.000359935 -4.04296e-05 0.000434541 0.000519599 0.000769451 
0.000259173 -0.000346932 -0.0010955 -0.00179813 -0.00199035 -0.00177472 -0.00104097 0.000130797 0.00134658 0.00262105 
0.00348818 0.00398337 0.00394141 0.00337082 0.00242747 0.00111197 -0.000286605 -0.00176517 -0.00305168 -0.00418377 
-0.00494979 -0.00544552 -0.00555066 -0.00534562 -0.00486064 -0.00410078 -0.00323252 -0.00221059 -0.0012226 -0.000236033 
0.000563242 0.00123962 0.00166198 0.00191742 0.00192376 0.00179992 0.00150222 0.00115058 0.000699942 0.000227123 
-0.000281191 -0.000701097 -0.00102399 -0.00112145 -0.00100027 -0.000705681 -0.000377813 -5.43971e-05 0.000317291 0.00071662 
0.00087874 0.000357069 -0.00018926 1.83833e-05 -0.000213205 0.000571816 -0.00122821 0.0037248 0.0010327 0.000728722 
0.000693779 0.00216934 -0.000163323 -0.00129539 -0.00403433 -0.00295621 -0.000780572 0.000941478 0.00216285 0.0021395 
0.00126086 -0.000135489 -0.00233458 -0.000984272 0.00152366 0.000733492 -0.000815904 -0.000673056 0.00131588 -0.000135449 
-0.000737175 0.000513192 0.000322019 -0.000493287 6.11955e-05 0.000168999 -0.00102985 1.74859e-05 0.000312509 -7.51612e-05 
0.000315629 0.000448133 -0.000299213 0.000185765 -6.64126e-05 -0.000113838 0.000186666 -8.92354e-05 -0.000240296 -0.000272114 
-0.000640547 -0.000295348 -8.69268e-05 0.000435972 0.00110721 0.0013418 0.00164061 0.00123933 0.000694803 -0.00020416 
-0.00125671 -0.00211072 -0.00293895 -0.0032261 -0.00330055 -0.00286067 -0.00213732 -0.00119246 -2.68385e-05 0.0010265 
0.00213575 0.00292461 0.00358048 0.00385673 0.00391333 0.00363816 0.00317673 0.00250468 0.0017478 0.000984885 
0.00025594 -0.000349045 -0.000826116 -0.00111781 -0.00127678 -0.00126795 -0.00116776 -0.00095505 -0.000672161 -0.000345537 
-6.81066e-05 0.000117244 0.000156631 3.65981e-05 -9.69717e-05 -0.000162036 -0.000133576 -0.000154692 -0.000254803 -0.000154791 
0.000521104 0.00108744 0.000698504 0.000978888 0.000106292 0.00242157 -0.00270309 0.000193431 0.000714643 0.000757845 
0.00238382 0.00142922 -0.000495827 0.000241122 -0.00164614 0.00200607 0.00173257 0.000237514 -0.00175634 -0.00412233 
-0.00235677 -0.000931276 0.000405696 0.00176637 8.14216e-05 -0.00100854 -0.000428137 0.00112221 0.000360533 -0.0012368 
0.000627863 0.000652457 -0.000482688 -0.000368969 0.000480861 -0.000856985 -0.000308657 0.000792525 -6.43755e-05 2.58199e-05 
0.000728794 -0.000151663 -2.81643e-05 0.000292665 -0.00032712 1.91595e-05 4.7572e-05 -0.000322128 0.000184214 -4.95334e-05 
0.000174451 0.00038214 0.000167594 0.000206745 -0.000175978 -0.000576719 -0.000765256 -0.00113388 -0.000900539 -0.000715705 
-0.000121454 0.000582113 0.00121004 0.00193374 0.00222435 0.00247843 0.00224722 0.00188882 0.00122318 0.000463916 
-0.000334388 -0.00112386 -0.00170199 -0.00221289 -0.00236474 -0.00243569 -0.0021593 -0.00183692 -0.00131969 -0.000836366 
-0.000280416 0.00014171 0.00053806 0.000777595 0.000949303 0.000968829 0.000921721 0.000715168 0.000472396 0.000162663 
-9.18455e-05 -0.000319375 -0.000425397 -0.000542731 -0.000600296 -0.00054502 -0.000177101 0.000397377 0.000733353 0.000339625 
-1.31395e-05 0.000576474 0.000249629 0.00126393 -0.00164507 0.0038017 0.000660007 0.000500486 0.000930793 0.00113461 
0.000373727 -0.00129477 0.000147512 -0.00213168 -0.0018178 0.000558034 -0.00142071 -7.49615e-05 -4.28645e-05 0.00236398 
0.00480914 0.00212471 0.000263079 -0.00143732 -0.00106197 0.000748572 0.00096346 0.000362138 -0.00110811 0.000323326 
0.00104955 -0.0006507 -0.000565796 0.000434312 -0.00025512 -0.000882198 0.000837925 -1.9182e-05 -0.000549035 0.000526251 
0.000140508 -0.000644554 0.000392827 -0.000277392 -0.000287837 0.000274045 -0.000188216 2.42338e-05 0.000287908 -0.000225837 
0.000225859 -0.000125978 -0.000172372 4.25656e-05 -0.000206176 0.000272963 0.000293266 0.000570381 0.000779996 0.00060783 
0.000615551 7.22919e-05 -0.00027964 -0.000872922 -0.00136769 -0.00165202 -0.001934 -0.001736 -0.00160049 -0.00102424 
-0.000546092 0.000129032 0.000693676 0.00118251 0.00154641 0.00168717 0.00172786 0.00155503 0.00135056 0.000986928 
0.000709054 0.000359601 0.00015071 -6.8244e-05 -0.000127483 -0.000174919 -6.23091e-05 2.98362e-05 0.000184189 0.00026109 
0.000319069 0.000278775 0.000281441 0.000244801 0.000104384 -0.000259583 -0.000676173 -0.000593336 0.000289297 0.00100992 
0.000481426 0.000976892 -0.000199426 0.00333773 -0.00237419 0.000964334 0.00103554 0.00024217 0.000559061 0.000149136 
0.000247463 0.0024931 0.000131012 -0.00209047 0.00068538 0.000399314 0.000203251 0.000296219 -0.00182635 -0.00109968 
-0.00342859 -0.00489581 -0.00221571 0.000345997 0.00245679 0.000730863 -0.000785871 -0.000672871 0.000196737 0.00105806 
-0.000580675 -0.000601823 0.000530912 0.000155101 -0.000895053 0.000418181 0.000551732 -0.000767942 0.000408015 0.000664572 
-0.000684397 0.000133577 0.000418949 -0.000502618 0.000387114 0.000205902 -0.000269359 0.000431674 -0.000174706 -5.88192e-05 
0.00017835 -0.000267837 0.000136201 -1.97816e-05 -0.0001301 0.000111613 -0.000369671 -0.000177369 -0.00052556 -0.000581406 
-0.000487875 -0.000581341 -0.000114912 -1.60848e-05 0.000520294 0.000777419 0.00108359 0.00128146 0.00122269 0.00120467 
0.000829669 0.000610317 0.000126261 -0.000127179 -0.00050026 -0.000635988 -0.000799518 -0.000754103 -0.000700828 -0.000545353 
-0.000394049 -0.000221067 -7.43785e-05 5.19353e-05 0.000132325 0.000180315 0.000218063 0.000278447 0.000326712 0.000393939 
0.000397102 0.000301821 0.00012383 9.89366e-05 0.000300134 0.000645297 0.00053198 -0.000188646 -0.000511389 0.000561698 
0.000240871 0.00169487 -0.00243105 0.00363023 0.000130491 0.000165485 0.00123489 0.00082429 0.000828945 0.0013259 
0.00199075 -2.81306e-05 -0.00432945 -0.00196622 -2.71239e-05 -8.85169e-05 0.000749964 -0.00040651 0.000757451 0.00326518 
0.00287384 0.00445628 0.00441601 0.00228127 -0.000660549 -0.002406 -9.37825e-05 0.0010385 0.000612856 -0.000517324 
-0.000548805 0.000606073 5.49654e-05 -0.000800805 -7.86886e-05 0.000684337 -0.00070236 -0.000149621 0.000767752 -0.000585757 
-0.000486678 0.00080743 -0.000395744 -0.000121843 0.000493812 -0.000445247 6.34859e-06 0.000182361 -0.000532649 0.000245838 
-0.000204707 -0.000165824 0.000216495 -0.00026782 0.000203988 3.55509e-05 5.95864e-05 0.000383638 0.000136616 0.000550158 
0.000363351 0.000462061 0.000421186 0.000143851 0.000163581 -0.000269029 -0.000245954 -0.000558406 -0.000506543 -0.000535965 
-0.000423403 -0.000225547 -0.000103514 0.000164818 0.000229303 0.000436561 0.000366271 0.000450493 0.000298532 0.000310469 
0.000158844 0.000171145 5.95452e-05 0.000111111 4.11312e-05 6.04449e-05 -7.12729e-05 -9.8372e-05 -0.000201096 -0.000122385 
3.97967e-05 0.000314966 0.000354246 0.000113332 -0.000273234 -0.000137995 0.000635554 0.000975755 -6.98285e-05 0.000608095 
-0.000837131 0.0039233 -0.00260044 0.00105626 0.00109419 -0.000173797 0.000332756 0.000618763 0.000130671 0.000429585 
-0.000107921 -0.00340827 -0.00152019 0.00181075 0.00189849 0.0017092 6.7377e-05 -0.00130625 -0.000164985 -0.00162544 
-0.00413357 -0.0048062 -0.00522076 -0.00360302 -0.00150717 0.00136473 0.00221285 -0.000121301 -0.00105996 -0.000200428 
0.000723557 -2.50912e-05 -0.000693044 9.65998e-05 0.000634094 -0.000311205 -0.000313139 0.000819966 -8.63946e-05 -0.0006114 
0.000855067 0.00015821 -0.000693051 0.000488318 -0.000124689 -0.000432889 0.000473381 -0.000337127 -6.61221e-06 0.000385603 
-0.000238203 0.000390477 0.000117583 -2.83321e-05 0.000379981 -0.000210396 0.000163392 -0.00013281 -0.000249239 -9.71871e-05 
-0.000497082 -0.000184331 -0.000444895 -0.000232253 -0.000172161 -0.000114183 0.000154375 6.74633e-05 0.000323616 0.000126983 
0.000246756 2.12102e-05 3.58555e-06 -0.000203345 -0.000269156 -0.000357955 -0.000417869 -0.000417022 -0.000470954 -0.000450584 
-0.000525549 -0.000504529 -0.000590139 -0.000535976 -0.000502566 -0.00029684 -0.000156389 3.73109e-05 5.33679e-05 -6.93146e-05 
-0.000237282 -0.000190425 0.000211545 0.00064653 0.000530787 -0.000231762 -0.000382534 0.000955777 0.000331533 0.00216187 
-0.00304457 0.00390929 -0.00014277 -0.000514075 0.000893152 0.000504275 4.38222e-05 0.000496872 0.000664767 -0.000208945 
-0.00102622 0.000289268 0.00160742 0.000626494 -0.000218236 -0.0012547 -0.00217567 -0.000117983 0.00152402 0.00168202 
0.00263315 0.00479426 0.00625916 0.00574473 0.00311967 0.000584293 -0.00165014 -0.00168853 0.00039732 0.00110883 
-0.000218341 -0.000739085 0.000201288 0.000443991 -0.000503933 -0.000395483 0.000531872 -4.83555e-05 -0.000728674 0.00036462 
0.00033929 -0.00096947 0.000169305 0.000439843 -0.000474453 0.000330841 0.000229861 -0.000358274 0.000549363 -0.000132014 
-0.000129693 0.000218418 -0.000475008 4.51487e-05 -0.000210738 -0.000316518 9.48315e-05 -0.000361196 0.00011713 -9.14931e-05 
2.62538e-05 0.000205258 -8.44608e-06 0.000320908 7.88512e-07 0.000219006 1.06079e-05 3.3727e-05 1.9941e-06 -0.000116625 
-3.18386e-05 -0.000202656 -3.92217e-05 -0.000249805 -0.000110749 -0.000303528 -0.000183019 -0.000301764 -0.000156393 -0.000167815 
3.85835e-06 4.29296e-05 0.000157944 5.7989e-05 -4.09758e-05 -0.000259834 -0.00037818 -0.000440269 -0.000230178 -0.000115091 
-0.000123486 -0.000560074 -0.000851449 -0.000545951 0.000407093 0.000634067 -0.0006883 0.000320936 -0.00146821 0.0045648 
-0.00272912 0.00152862 0.00185615 -0.000103423 -0.000147965 0.000357177 0.000113419 -0.000249534 0.000157499 0.000479214 
0.000660142 0.000675875 -0.00247724 -0.00173462 -3.05972e-05 -0.000151548 0.00112666 0.00201717 0.000450585 -0.00121017 
-0.00343499 -0.00401127 -0.00576882 -0.00686857 -0.00560536 -0.00242243 0.000580709 0.0017041 0.00131315 -0.000551007 
-0.00091787 0.000322402 0.000392661 -0.000404967 -0.000258697 0.000789609 3.3791e-05 -0.000462678 0.000344915 0.000585865 
-0.000613459 8.12187e-05 0.000803081 -0.000342965 -0.000179081 0.00040836 -0.000482439 8.06544e-05 8.63864e-05 -0.000537753 
0.000186827 -0.000165114 -0.000115623 0.000369763 -0.000172623 0.000329637 0.000106998 2.2503e-05 0.000362157 -7.67624e-05 
0.000354348 4.79438e-05 0.000192358 0.000203604 1.6972e-05 0.000233463 -0.0001087 0.000144372 -0.000152389 4.03317e-05 
-0.000122471 -2.5749e-05 2.71078e-05 6.37925e-05 0.000262495 0.000238988 0.000438404 0.000329686 0.000427459 0.00021655 
0.000236331 2.63621e-05 0.000152219 0.000111638 0.000291082 0.000243789 0.000201008 -0.000151092 -0.0003122 -0.000319759 
0.000122195 0.000359232 -7.45631e-05 -0.000989601 -0.00106261 0.00060751 -0.000361193 0.00195467 -0.00428628 0.00392515 
-0.000233016 -0.000694691 0.00126998 0.0010908 6.85736e-05 -0.000189984 0.000104182 5.05973e-05 -0.000252799 0.000118527 
0.000392181 -0.00272699 -0.00249893 0.00293555 0.00268642 0.000818702 0.000437427 -0.00114748 -0.00137026 -0.000660315 
0.000426583 0.00424225 0.00497785 0.00681689 0.00669581 0.00498063 0.00147255 -0.00148757 -0.00141347 -0.00093686 
0.000595096 0.000402656 -0.000214715 -0.000163927 0.000438991 -5.22434e-05 -0.000780208 0.00027982 0.000274742 -0.000539622 
-0.000320598 0.000678848 -0.000446522 -0.000475802 0.000380512 -0.00010232 -0.000218832 0.00043249 -0.000291753 0.00017033 
0.000382645 -0.000175738 0.000442506 -7.65559e-05 -9.95758e-05 0.000195122 -0.000313582 0.000203935 -0.000138748 -6.20726e-05 
4.13059e-05 -0.000351768 -1.51631e-05 -0.000461192 -0.000191992 -0.00034 -0.000302966 -0.000137476 -0.000281449 7.47087e-05 
-0.000176692 0.000111181 -0.000140734 6.47948e-06 -0.000197158 -0.000114896 -0.000202427 -9.79603e-05 -3.83524e-05 0.00011017 
0.000219409 0.000235301 0.000258007 0.000230375 0.000280793 0.000454808 0.000706495 0.000813693 0.000535692 -6.15245e-05 
-0.000491785 -4.32641e-05 0.000689001 0.000583727 -0.00135933 -0.000236474 -0.00270362 0.0042561 -0.0041933 0.000558299 
0.00177327 -2.50174e-06 6.77285e-05 0.000847114 0.000819637 0.000129189 -0.00032296 -0.000361659 -0.000333197 -0.000555226 
-0.00101719 -0.00236158 0.00230385 0.00382317 -0.00164493 -0.00297652 -0.00223355 -0.0010215 0.00106558 0.000424988 
-9.27624e-05 -0.000601847 -0.00470417 -0.00556149 -0.00754283 -0.00577328 -0.00380397 -8.47082e-05 0.00208803 0.00114074 
0.000575858 -0.000504314 -4.42692e-06 -0.000264525 -1.50476e-05 -0.000322303 0.000410584 0.000432025 -0.000356438 -8.19797e-05 
0.000649411 -6.43212e-05 -0.000471858 0.000545625 0.000170132 -0.000335878 0.000345407 -8.80825e-05 -0.000174733 0.000312523 
-0.000334383 -0.0001113 1.81314e-05 -0.000498998 0.00019517 -0.00017482 -0.000147189 0.00014213 -0.000446894 0.000139026 
-0.000306482 -2.72646e-05 0.000115349 -5.83623e-05 0.00042023 4.77205e-05 0.000477139 0.000144204 0.000257434 0.000142386 
8.0897e-05 0.0001719 3.01467e-06 0.000267263 8.65633e-05 0.000351166 0.000154226 0.000363707 0.000109116 0.00027591 
0.000139962 0.000273936 0.00012446 0.000127891 -0.000229226 -0.00038164 -0.000503204 -1.35916e-05 0.000595095 0.00101636 
0.000340447 -0.000479944 -0.000425131 0.00148094 3.72753e-05 0.00248742 -0.00509496 0.00386577 -0.000919755 -0.00222368 
4.27542e-05 0.000547357 4.49875e-05 -5.08614e-05 0.000286678 0.000445111 0.00028407 -0.000124489 -0.000422351 -0.00071712 
-0.000877229 0.000371693 0.00256468 -0.00124328 -0.00384322 -0.000168132 0.00232711 0.00334631 0.00176202 -0.00115179 
-0.000577922 0.000365405 0.00105449 0.00474429 0.00561664 0.00750915 0.00428519 0.00222305 -0.00139887 -0.00220851 
-0.0010481 -0.000396118 6.63792e-05 -0.00010563 0.00084886 0.000122988 -2.97338e-05 -0.000552121 0.000108513 0.000217736 
-0.000104096 -0.000555789 0.000376894 0.000148059 -0.000403568 6.92935e-05 0.000173089 -0.000325474 0.000306922 -9.7184e-05 
-0.000226678 0.000415778 -0.000203933 0.000263346 0.000308906 -0.000192186 0.0004049 -2.03613e-05 0.000189907 0.000446181 
2.01968e-05 0.000564431 -1.87369e-06 0.000211589 1.18439e-06 -0.000212483 4.58327e-06 -0.000342226 0.000130118 -0.000216156 
0.000206751 7.20581e-05 0.000251545 0.000161358 0.000163517 9.15192e-05 -8.13314e-05 -9.18047e-05 -0.000365509 -0.000405287 
-0.0005975 -0.000473367 -0.000395434 2.00556e-05 0.000248115 0.000327588 -0.00016972 -0.000769723 -0.000978652 -7.10642e-05 
0.000909477 0.000797187 -0.00113217 0.000364658 -0.00230563 0.00552978 -0.00426602 0.000350883 0.00183099 -0.000536191 
-0.00105412 -0.000263585 0.000226454 0.000162226 -5.27371e-05 -0.000168131 -6.73193e-05 5.17959e-05 -7.02928e-05 -0.000434934 
2.21099e-05 0.000418343 -0.000730644 -0.0020638 0.000553764 0.00300425 0.00138956 -0.00141551 -0.00412018 -0.00331557 
-0.000219853 0.000411831 -0.000570393 -0.0016471 -0.00455206 -0.00511335 -0.00637859 -0.00221426 -0.000146176 0.00278064 
0.00197125 0.00110234 0.000470142 0.000521581 -0.000246196 -0.00132771 -8.05908e-05 0.000596665 0.000269734 -0.000565087 
5.50051e-05 0.00027693 0.000148194 -0.000401174 5.04611e-05 0.000156183 -0.000226695 4.82575e-05 -1.67155e-05 -0.000296717 
0.000278641 1.9382e-05 -0.000318088 0.000308326 -0.00043524 -5.21761e-05 0.000121395 -0.000451726 0.000196053 -0.00046245 
-0.000269322 -0.00022994 -0.000520263 6.89356e-05 -0.000337038 0.000221849 4.07609e-05 0.000124092 0.000194608 -8.36682e-05 
9.52642e-06 -0.000417847 -0.000218098 -0.000576085 -0.000268339 -0.000437223 -6.76228e-05 -1.67538e-05 0.000314056 0.000294213 
0.000319224 -4.54297e-05 -0.000391393 -0.000834944 -0.000731068 -0.00031142 0.000404063 0.000416555 -0.000546709 -0.00149581 
-0.00109373 0.00105719 -0.000302999 0.0026646 -0.00543279 0.00508542 0.000381895 -0.00162658 0.000495397 0.00087922 
-0.000148894 -0.000785822 -0.00074746 -0.000409731 -0.000143281 -0.000119266 -0.000199224 -0.000207493 -3.54061e-05 -0.000283781 
-7.36386e-05 -0.00134637 -0.000786308 0.00155742 0.00181792 -0.000602031 -0.00245492 -0.00231883 0.000211958 0.00346513 
0.00387081 0.00184807 7.14311e-05 0.000740861 0.00201223 0.00415284 0.00408604 0.00426851 -0.000195239 -0.0021751 
-0.0038317 -0.00167869 -0.00135247 -0.00100159 -0.0009844 0.000981712 0.00157227 -0.000272922 -0.00111355 0.000405966 
0.000744204 -0.000444575 -0.000269198 0.00041841 0.000117768 -6.63841e-05 0.000166445 0.000171335 -8.2126e-05 0.000404371 
0.000128473 -0.00035868 0.000308325 3.63085e-05 -0.000147066 0.000376667 -0.00022909 3.00653e-05 0.00019775 -0.000216642 
0.000494475 -3.61319e-05 0.000319565 0.000205263 -5.6029e-05 0.000169694 -0.000339367 0.000103751 -0.000226093 0.000203347 
0.00021848 0.000495244 0.000616882 0.000551218 0.000654272 0.000244337 0.000137724 -0.000346458 -0.000323293 -0.000455342 
-2.37162e-05 0.000263701 0.000740194 0.000462346 2.20898e-05 -0.0007401 -0.000612982 0.000473043 0.00130936 0.000724708 
-0.00157735 -0.00015233 -0.00316775 0.00547001 -0.00555034 -0.000608359 0.0019905 1.32692e-05 -0.000497265 0.000426252 
0.000892205 0.000598204 -4.35289e-05 -0.000598059 -0.000781596 -0.000712649 -0.000491581 -0.000393169 -5.49328e-05 -0.000298115 
-0.000968521 -0.00128017 0.00192668 0.00205695 -0.00216751 -0.0024861 0.000353587 0.00226176 0.00286119 0.000120047 
-0.0029572 -0.00399086 -0.00336796 -0.000979023 -0.00107772 -0.00195417 -0.00338114 -0.00237342 -0.00129892 0.00282909 
0.0043472 0.00436894 0.00151138 0.00182131 0.00199597 0.00104808 -0.00189878 -0.00149104 0.00105754 0.00123575 
-0.00119906 -0.00056429 0.000927897 -0.000121244 -0.000754581 0.000325634 -5.23282e-05 -0.000525842 0.000140998 -0.000181138 
-0.00056789 0.000145864 0.000225917 -0.000462112 0.000226144 -6.70107e-05 -0.000122242 0.00043127 -0.000115069 0.000229697 
0.000170457 -0.000176396 0.000278984 -0.00028663 0.000257044 0.000162241 0.000204406 0.000385551 7.96361e-05 0.000307378 
-0.000223384 3.53402e-05 -0.000291343 -1.25323e-05 2.74156e-05 0.000428074 0.000632671 0.000781436 0.000633149 0.00034843 
-0.000150296 -0.000408114 -0.000147064 0.000500945 0.00113295 0.000939231 -0.000401317 -0.00109579 -0.000475208 0.00186266 
0.00024674 0.00314776 -0.00606905 0.00550384 0.000518504 -0.00246726 -0.000342907 0.000553024 -9.85241e-05 -0.000445973 
-0.000118738 0.00036896 0.000601015 0.000251181 -0.000331642 -0.000815251 -0.000850532 -0.000839521 -0.000393634 -8.23082e-05 
-0.00123947 0.000523537 0.00267966 -0.00130557 -0.00356895 0.00158697 0.00343486 0.000750982 -0.00229261 -0.00414708 
-0.000893365 0.00241299 0.00389786 0.00441399 0.00210559 0.00164398 0.00155041 0.00221661 6.80898e-05 -0.00214184 
-0.00549472 -0.00594291 -0.00439737 -0.00160554 -0.00263545 -0.00318672 -0.000563758 0.00282803 0.000943474 -0.0021749 
-0.000795565 0.00180066 -4.36308e-05 -0.00131394 0.000813657 0.000571989 -0.000769463 0.00037816 0.000647113 -0.000506617 
0.000512804 0.000433669 -0.000485502 0.000108274 0.00025859 -0.00033448 0.000195468 -0.000264961 -0.000462385 -9.29699e-06 
-0.000579836 -9.59723e-05 -7.06836e-05 -0.000149476 9.69933e-05 -0.000284029 0.000118154 -0.000137533 0.000139746 0.000251368 
0.000391434 0.000658557 0.000551051 0.00066634 0.000312444 0.000278136 4.18492e-05 0.000275584 0.000301403 0.000758125 
0.000581499 0.000210342 -0.000717225 -0.00116648 -0.000797959 0.000869894 0.00152722 0.000885848 -0.00139113 0.000296414 
-0.0024971 0.0071001 -0.00523532 -0.000487613 0.00272596 0.000331002 -0.000960117 -0.000469402 5.19547e-05 -1.32213e-05 
-0.000128859 -9.05255e-05 0.000328306 0.000599229 0.000313321 -0.000434817 -0.000825492 -0.00094531 -0.00095156 7.1876e-05 
-0.000679876 0.00160761 0.000635592 -0.00307796 -0.000124447 0.00436691 0.000249631 -0.00341027 -0.00257064 0.00121797 
0.00504847 0.00221579 -0.00160436 -0.00378393 -0.00492378 -0.00313927 -0.00221084 -0.000824205 -0.000521326 0.00268108 
0.00555686 0.00781809 0.00657838 0.00401544 0.00205439 0.00389245 0.00405472 -0.000506489 -0.00361517 0.000265327 
0.00328345 -0.000136429 -0.00202756 0.0011173 0.00127989 -0.00142995 0.000120937 0.00103422 -0.000908704 -0.000208934 
0.000717476 -0.000685677 -7.72679e-06 0.000600843 -0.000351045 0.000185412 0.000283342 -8.67298e-05 0.000510558 0.000313937 
0.000333802 0.000570167 -6.00004e-05 0.000231398 -2.36454e-06 8.14161e-05 0.000213161 0.000160826 0.000582229 0.000484606 
0.000820845 0.000848576 0.00118249 0.0012939 0.00145487 0.00126786 0.000989012 0.00050392 -4.46094e-05 -0.000123224 
0.000182719 0.000887483 0.00106183 0.000321605 -0.00151503 -0.00205235 -0.00111392 0.00120211 -0.000290902 0.00243405 
-0.00744585 0.00568343 0.00116523 -0.00243558 2.60452e-05 0.00149294 0.000964319 8.15469e-05 -0.000155607 -0.000250685 
-0.00026918 -0.00043366 -0.000386223 0.000160294 0.000714852 0.000404691 -0.000388582 -0.000687363 -0.00139401 -0.000109506 
-6.73749e-06 0.00103167 -0.00106485 -0.00123737 0.00269959 0.00172124 -0.00345375 -0.00174347 0.00221907 0.00364777 
0.000351393 -0.00501581 -0.00378534 0.000286103 0.0035538 0.00501691 0.00391946 0.00257065 -9.20013e-05 -0.00172586 
-0.00562455 -0.0084494 -0.00931308 -0.00613689 -0.00341478 -0.00294195 -0.00541598 -0.0039945 0.00214818 0.00397114 
-0.00217349 -0.00390351 0.00142376 0.00173748 -0.00248397 -0.000644398 0.00163814 -0.00114201 -0.000860142 0.00128207 
-0.000717379 -0.000622342 0.000685423 -0.00052222 -0.000341563 0.000187526 -0.00061369 3.46291e-05 -1.73936e-06 -0.000339991 
-0.000213029 -0.000320257 8.55722e-05 0.000333879 0.000303908 0.000659971 0.000596091 0.000642474 0.000548784 0.000601235 
0.000686429 0.000822626 0.00105517 0.00140376 0.00198583 0.00237313 0.00285903 0.00284561 0.00235087 0.00110869 
-0.000259 -0.000946461 -0.000421741 0.00120727 0.00143974 0.000245889 -0.0019147 -0.00046881 -0.00283057 0.00750547 
-0.00624468 -0.00185706 0.00235453 -6.58051e-06 -0.00156782 -0.00100798 0.000132939 0.000517959 0.000559591 0.000407192 
0.000297449 0.000144741 -0.000333927 -0.000665977 -0.000176408 0.000515347 0.00020966 0.000261498 -0.00120534 -0.000647718 
0.000208108 6.08328e-05 -0.000582079 0.00102447 0.00145892 -0.00160293 -0.00183885 0.00238672 0.00235232 -0.00107472 
-0.00402379 -0.00177875 0.00403354 0.00508768 0.00151305 -0.00291238 -0.00473533 -0.00428834 -0.002454 0.00115842 
0.00437337 0.00839945 0.0103628 0.00950925 0.00482884 0.00282566 0.00424076 0.00662601 0.00258912 -0.00423018 
-0.00346445 0.00440134 0.0035666 -0.00291093 -0.00072643 0.00365116 -0.000517167 -0.00134668 0.00215906 7.21234e-05 
-0.0011059 0.00166259 9.59621e-06 -0.000447187 0.000862731 -9.81287e-05 0.000303099 0.000338326 -0.000621188 0.000231244 
-2.07641e-05 1.07398e-05 -7.03811e-05 -0.000368148 -0.000132802 -0.000320496 0.000195306 0.000499634 0.00128041 0.00191969 
0.00252657 0.0032176 0.00330874 0.00347957 0.00311004 0.00292451 0.00264472 0.00286064 0.00333326 0.00376221 
0.00311872 0.0013675 -0.00123023 -0.0018063 -0.000664141 0.00126278 0.000177153 0.00226218 -0.00823458 0.00616611 
0.00204839 -0.00291543 -0.000734372 0.00101122 0.000547923 -0.000557364 -0.000901377 -0.00063689 -0.000250746 5.85069e-05 
0.000173601 0.000392847 0.000504807 -4.60495e-05 -0.000657576 -0.000136429 -0.000268595 0.000792426 -7.43501e-05 -0.000919729 
0.000104941 -3.72189e-05 0.000850358 0.000810551 -0.00119156 -0.000937869 0.00180652 0.00191289 -0.00180243 -0.00297615 
0.000139038 0.00412505 0.0028227 -0.0024881 -0.00575844 -0.00344816 0.00169653 0.00411604 0.00418893 0.00169304 
-0.00245178 -0.00707098 -0.0105705 -0.0109586 -0.00817358 -0.00305898 -0.00245313 -0.00569859 -0.00677408 0.000180207 
0.00638052 0.00183208 -0.00619775 -0.00197013 0.00422398 -0.00103716 -0.00393138 0.00207739 0.000576465 -0.00264796 
0.00111834 0.000335836 -0.00195202 0.00106349 -6.5658e-05 -0.000724322 0.000616786 -0.000376409 0.000592344 0.000602044 
9.16526e-05 0.000874167 0.000188722 0.000886869 0.000747154 0.000878979 0.00127382 0.000918287 0.00163587 0.00150894 
0.00273363 0.00362518 0.0052432 0.00670962 0.00796351 0.00850967 0.00802355 0.00656573 0.00481061 0.00369676 
0.00371259 0.00419943 0.00294325 0.000122313 -0.00209774 -0.00167971 -0.00289367 0.00818278 -0.00627615 -0.0022218 
0.00362578 0.00164351 -0.000657161 -0.000523882 0.000220411 0.000491813 -2.82091e-05 -0.000460726 -0.000630144 -0.00046859 
-0.000233321 -9.86673e-05 0.000362169 0.000753735 -0.000152167 -0.000104669 -0.000889841 4.37396e-05 0.00088832 -0.000531482 
6.26673e-05 0.000605361 0.00124708 -0.00110521 -0.00148046 0.00216522 0.00195065 -0.00193284 -0.00271146 0.000858091 
0.00380192 0.00102449 -0.00408297 -0.00362613 0.000786761 0.00572803 0.00510688 8.43598e-05 -0.00306825 -0.00354975 
-0.000315486 0.00403935 0.00929787 0.0116709 0.0100422 0.00544976 0.00122776 0.00251892 0.00692705 0.00538592 
-0.00399088 -0.00801765 0.000692485 0.00684594 -0.000858842 -0.00478589 0.00305741 0.00274124 -0.00373254 0.000683682 
0.00222612 -0.00231919 0.000631555 0.000962538 -0.00195539 0.000862131 -0.000322301 -0.000995884 0.000405182 -0.00143178 
-0.000120547 -0.000547584 -0.000479726 0.000648293 -9.97648e-05 0.00138454 0.00113481 0.00241084 0.00338854 0.00416731 
0.00555747 0.00607693 0.00769674 0.00850492 0.0104802 0.0118702 0.0138112 0.0140197 0.0129 0.00918285 
0.00531106 0.00291133 0.00298664 0.00223445 0.000766349 0.000614608 -0.0106786 0.00492847 0.00194963 -0.00383703 
-0.00178777 0.00132117 0.00137241 0.000678835 0.000115011 0.000421206 0.000687415 0.000503382 0.000103612 -0.000366512 
-0.000514309 -0.000590196 -0.000676555 0.000538005 0.000417971 0.000632136 -0.000465917 -0.00114326 0.000810884 9.66479e-05 
0.000234484 0.00106789 0.000275622 -0.00226346 0.000698156 0.0033878 -0.00131967 -0.0032893 0.000876681 0.00338009 
0.000863162 -0.00422126 -0.0026347 0.00360874 0.00438648 0.000923939 -0.00505391 -0.00615864 -0.00220332 0.00144167 
0.00226264 -0.00142266 -0.00579139 -0.0105039 -0.011268 -0.00755765 -0.00189215 0.000236437 -0.00334084 -0.00753612 
-0.0023567 0.00838146 0.00851306 -0.00352325 -0.00598008 0.00438782 0.00419226 -0.0045327 -2.87404e-05 0.00460581 
-0.00224665 -0.00058361 0.00330274 -0.00134284 0.00072375 0.00175421 -0.00108001 0.00180314 0.00030291 -1.84835e-06 
0.00172356 -0.000654169 0.00120197 -0.000170643 3.70678e-05 0.00112833 0.000670909 0.00308297 0.0034339 0.00669549 