# vtk DataFile Version 2.0
Titre
ASCII
DATASET STRUCTURED_POINTS
DIMENSIONS 100 100 1
ORIGIN 0.0 0.0 0.0
SPACING 0.1 0.1 0.0
POINT_DATA 10000 
SCALARS rho float
LOOKUP_TABLE default
0.000168708 0.000990453 0.00194559 0.00133987 0.00174763 0.00100026 0.000358048 -0.00104366 -0.00161484 -0.00177546 
-0.000804393 1.06538e-05 0.00039396 -0.000101764 -0.000343612 -0.000373269 0.000171989 8.82914e-05 0.000225102 5.34653e-05 
0.000195349 -0.000263805 -6.64864e-05 0.000217921 0.000199786 -0.00035101 -0.000102152 0.000383028 -0.000112343 -0.000329087 
0.00020788 0.000224478 -0.00041009 0.000133427 0.000216089 -0.000248261 1.59147e-05 0.000212125 -0.000190652 -1.73352e-07 
0.000180273 -0.000186242 8.20159e-05 6.29641e-05 -0.000127239 8.10305e-05 -1.20439e-05 -8.178e-05 0.00010224 -8.64236e-05 
4.37163e-05 2.90564e-05 -4.55478e-05 9.40315e-05 -6.01977e-05 5.61959e-05 -1.28943e-05 -1.75291e-05 3.02226e-05 -4.65661e-05 
1.82149e-05 -4.53283e-05 -4.31851e-05 -7.3658e-05 -0.000109738 -0.000135056 -0.00017816 -0.000235136 -0.000290597 -0.000359276 
-0.000374514 -0.000358284 -0.000241353 -6.45496e-05 0.000212806 0.000520729 0.000848241 0.00108368 0.00117772 0.00103943 
0.000690153 0.000177837 -0.000339458 -0.000713844 -0.000808923 -0.000606939 -0.00019264 0.000249396 0.000539896 0.000591081 
0.000468256 0.00039668 0.000504024 0.000531684 0.000200647 -0.000566415 -0.00148323 -0.000566856 -0.000238339 0.00161209 
-0.000818592 0.000456701 -0.000523561 -7.43349e-05 -0.00106207 -0.000797336 -0.00203683 -0.00114302 -0.000978379 0.000460388 
0.000617493 0.000338022 -0.000736387 -0.000946638 -0.00038277 0.000442428 0.000382887 3.0133e-05 -9.55424e-05 9.56719e-05 
-0.000265718 -0.000144458 0.000294508 0.000380706 -0.000644963 -0.00015701 0.000592746 0.000135415 -0.00083231 0.000377613 
0.000557699 -0.000667406 -7.81921e-05 0.000672532 -0.000397821 -0.000297032 0.00062743 -0.00035591 -0.000159218 0.00040193 
-0.000192155 -0.000126514 0.000321044 -0.000249758 -2.85189e-05 0.000206676 -0.000273398 0.000170913 1.75255e-05 -0.000116659 
0.000185966 -0.00011938 3.69978e-05 2.30197e-05 -0.000100756 5.74788e-05 -8.24465e-05 2.35184e-05 -2.13958e-05 1.57486e-05 
1.72352e-05 2.78715e-05 5.87231e-05 5.69021e-05 0.000115427 0.000128289 0.000187996 0.000221281 0.000249411 0.000248406 
0.000204487 0.000108444 -2.72937e-05 -0.00019764 -0.000345609 -0.000437181 -0.000402664 -0.000221199 0.00010169 0.00049428 
0.000834639 0.00100584 0.000917703 0.000598708 0.000144214 -0.000272402 -0.000518968 -0.000528494 -0.000325286 -1.19593e-05 
0.000285394 0.000411695 0.000514032 0.000660263 0.000271378 0.000721436 -0.0012086 -0.000457594 -0.00105047 0.000101037 
0.00204534 0.00188901 0.003515 0.00179067 0.00259238 9.16837e-05 -0.000559025 -0.0017078 -0.00192386 -0.0013031 
-0.000974341 -0.000201993 7.45534e-06 0.000668415 0.000500013 0.000182942 -0.000542694 -0.000169864 8.02014e-05 0.000200212 
-0.000261118 0.000236548 0.000210817 -0.000374889 -0.000317985 0.000661013 0.000215258 -0.000903024 0.000202997 0.000832734 
-0.000607978 -0.000548655 0.00109018 -0.000339259 -0.000679147 0.000806359 -8.84989e-05 -0.000612552 0.000615868 8.32164e-07 
-0.000524866 0.000544811 -0.000198881 -0.000284235 0.000422747 -0.00024741 -3.52324e-05 0.000336152 -0.000357314 0.000259777 
-4.47141e-05 -0.000161015 0.00025358 -0.000270186 0.000208656 -5.2341e-05 1.49485e-05 0.000156882 -8.58233e-05 0.000159479 
-6.69649e-05 3.14611e-05 -6.21441e-05 -9.64053e-05 -0.000150193 -0.000218114 -0.000292525 -0.000349745 -0.000405226 -0.000406764 
-0.00037301 -0.000251858 -8.73362e-05 0.000163625 0.000406501 0.000667419 0.00082556 0.000913889 0.000843377 0.000687708 
0.000415805 0.000126432 -0.000170194 -0.000374539 -0.000445627 -0.000326287 -5.9322e-05 0.000223718 0.000319148 0.000177638 
-9.35695e-06 -9.69921e-06 0.000346241 0.00135158 0.000475561 0.000786994 -0.00179807 -0.00129943 -0.000980894 0.000954918 
-0.00103529 0.000248064 -0.00086648 -0.00111331 -0.00139675 -0.00251195 -0.00173964 -0.00127124 0.000446975 0.00151039 
0.00181417 0.000860861 -0.00012226 -0.00096302 -0.000603409 -0.00042117 0.000446939 0.000389125 0.000378642 -0.000431238 
-0.000145318 8.52893e-05 0.000133343 -0.000248169 0.000327012 6.9269e-05 -0.000444935 -5.73677e-05 0.000770878 -0.000403566 
-0.000667464 0.000950853 2.05328e-05 -0.000970156 0.000684125 0.000373994 -0.0010288 0.000657151 0.000247853 -0.00072219 
0.000422224 0.00016894 -0.000553344 0.000443606 6.99878e-05 -0.000380547 0.000496497 -0.000257157 -0.000104422 0.000280578 
-0.000387333 0.000187276 -5.88561e-05 -0.000160421 0.00017942 -0.000244672 9.2049e-05 -0.000167152 -6.2037e-05 -0.000101076 
-0.000121223 -1.38967e-05 -7.58794e-05 0.000124232 7.95979e-05 0.000287128 0.000297098 0.000436556 0.000443579 0.000466574 
0.000366782 0.000240485 7.69417e-06 -0.00020886 -0.000438377 -0.000540238 -0.000528836 -0.00032354 4.76205e-06 0.00040668 
0.000752626 0.000916828 0.000833453 0.000465388 -5.44342e-05 -0.000573972 -0.000816119 -0.000638001 -9.45384e-05 0.000405021 
0.000621058 0.000310564 -0.000669045 0.000541285 -0.000160793 0.00205203 -0.000121522 -0.000693486 -0.00139857 -0.000563649 
0.00264324 0.00211214 0.00212622 0.0017694 0.00124718 -0.000139995 -0.000320435 -0.00119247 -0.000862783 -0.000999765 
-0.00117403 -0.00101483 -0.000464782 0.000687075 0.00111961 0.000734672 -5.64887e-05 -0.000466905 -0.000417781 -0.000163535 
0.000269699 0.000440959 -0.000126126 -0.000223174 -0.000134058 0.000178506 2.02317e-05 0.000163875 -0.000229914 -0.000232808 
0.000444049 0.000185003 -0.000869356 0.000484048 0.000543615 -0.0010052 0.000443551 0.000534015 -0.000811845 0.000239721 
0.000476395 -0.000709722 0.000351303 0.000246128 -0.000509878 0.000279391 5.51921e-05 -0.000504525 0.000476055 -0.000305061 
-2.50556e-05 0.000373694 -0.000387857 0.000496673 -0.000145687 0.000151073 0.000263061 -0.00010152 0.00043564 -5.20574e-05 
0.000344274 8.18711e-05 0.000139786 4.78231e-05 -0.000103183 -0.000170796 -0.000369537 -0.000422095 -0.000549605 -0.000506926 
-0.000463121 -0.000272376 -5.00961e-05 0.000219671 0.000470675 0.000631795 0.00071469 0.000645127 0.000539157 0.000347508 
0.00022406 9.47466e-05 5.04012e-05 -1.17063e-06 -2.75496e-05 -8.28812e-05 -0.000189033 -0.000297682 -0.00031758 -0.000327477 
-0.000122926 0.000901407 -0.000131999 0.00177462 -0.000502803 0.000851698 -0.000726951 -0.00136157 -0.00134549 0.000748708 
0.000776517 -0.00186162 6.08628e-05 -0.00106249 -0.000421698 -0.00106432 -0.000121788 0.000326846 0.00185811 0.00219365 
0.00202024 0.00129621 0.000230985 -0.000246667 -0.00121889 -0.000918971 -0.000518663 0.000733845 0.000488871 0.000227028 
-0.000138176 -0.000127553 -0.000391697 -2.83946e-05 0.000427496 0.000259772 -0.000487929 -0.00027525 0.000486951 0.000108806 
-0.00021181 -0.000402213 0.000501075 0.000247165 -0.000710798 0.000193517 0.000783476 -0.00105452 0.000257838 0.000597774 
-0.000831114 0.000318071 0.000393788 -0.000611398 0.000308681 0.000174456 -0.000413729 0.000428268 2.87116e-05 -0.000159875 
0.00042445 -0.000226855 2.59449e-05 0.000117318 -0.000435473 0.000157502 -0.000470542 -0.000118493 -0.000292369 -0.000384687 
-0.000151982 -0.000467388 -4.56177e-05 -0.000313419 0.000120168 3.63974e-05 0.000369171 0.000402111 0.000568938 0.000535215 
0.000494278 0.000283418 7.93384e-05 -0.0002208 -0.000395972 -0.000554063 -0.00049001 -0.000367067 -7.33205e-05 0.000198188 
0.000460317 0.000582563 0.00052266 0.000284929 -0.000108403 -0.000430723 -0.000589055 -0.000452222 0.000114861 0.000544277 
-0.000216782 0.000869815 -0.00189704 0.000817246 -0.000198414 0.00177202 0.00123086 -0.000341669 -0.00190749 -0.00202983 
-0.000256167 -5.50473e-05 0.00101062 0.000645442 0.000268049 -0.0006942 -0.00116033 -0.00162696 -0.00115834 -0.00195761 
-0.00146303 -0.00196512 -0.000332357 0.000140815 0.00143062 0.00107989 0.00106064 -0.000220416 -0.00088864 -0.000902522 
0.000349923 0.000290128 0.000267398 -0.000139152 0.000209469 -0.000515364 -0.000201475 0.000676171 0.000219242 -0.00086868 
7.85894e-05 0.000682562 -0.000149587 -0.000643278 0.000307734 0.000756357 -0.00110885 0.000154541 0.000960082 -0.000997361 
0.000180369 0.000855469 -0.00100815 0.000392421 0.000271799 -0.000607237 0.000283739 0.000121048 -0.000567798 0.000318352 
-0.000251417 -0.0003961 0.000376344 -0.000537662 0.000305408 9.83668e-05 -2.50294e-05 0.0006789 -2.96786e-05 0.000754962 
0.000232891 0.000497245 0.000388296 0.000151046 0.000233428 -0.000226839 -0.000135801 -0.000568488 -0.000445002 -0.000667473 
-0.000418048 -0.000370175 -1.55603e-05 0.000167274 0.000442088 0.000528456 0.000554552 0.000468567 0.000310989 0.000208012 
7.92524e-05 0.000101527 9.03362e-05 0.00014671 5.52948e-05 -9.545e-05 -0.000312497 -0.000787076 -0.000882844 0.000262054 
-0.000932106 0.00248975 -0.000508005 0.00120305 -0.000563392 -0.000202124 0.000289655 -0.000216659 -0.00058637 -0.000398969 
0.00153453 1.80822e-05 0.00268364 0.00127905 0.00171308 0.00140215 0.00108912 0.00263715 0.00231494 0.00300861 
0.00195241 0.00139352 0.000680986 -0.000422139 -0.0010975 -0.00174795 -0.00100179 -0.0003564 0.00052478 0.0011456 
0.000627249 -0.000409802 -0.000875372 -5.89849e-05 0.00040214 0.000102205 1.77031e-06 0.000248596 -0.000828678 0.000265738 
0.000704253 -0.000327776 -0.00074377 0.000723391 0.000360882 -0.000772976 -0.000195495 0.00127933 -0.00098971 -0.000362487 
0.00132643 -0.00117773 -0.000190103 0.00108658 -0.00120523 0.000502843 0.000487977 -0.000750709 0.000761828 -1.13528e-05 
-9.94219e-05 0.000625757 -3.71729e-05 0.000164577 0.00042838 -0.000317527 0.000247198 -0.000344291 -0.000382556 -0.00024953 
-0.000813947 -0.000205555 -0.000782924 -0.0001031 -0.000364025 0.000153628 0.000202785 0.000471149 0.000589993 0.000582649 
0.000536025 0.000305982 7.58861e-05 -0.000181063 -0.000400797 -0.000453824 -0.00049589 -0.000312161 -0.000216508 2.65047e-05 
0.000121867 0.000233637 0.000238836 0.000173071 1.72128e-05 -0.000272465 -0.00011508 -0.000111252 -0.000889199 0.00140923 
-0.00208788 0.0013167 -0.00138371 0.000169564 0.000465193 0.000654143 0.00114036 0.000159491 -0.00139046 -0.00152011 
-0.00153452 -0.000926556 2.8918e-05 -0.00155867 -0.00117279 -0.002828 -0.00284134 -0.00218778 -0.00296562 -0.00164966 
-0.00279505 -0.000960039 -0.000901071 0.000872785 0.000984168 0.00202462 0.00152203 0.000772627 -0.000848428 -0.000852946 
-0.00115235 0.000101128 0.000357289 0.0010712 -9.53449e-05 -0.000774745 -0.000176478 0.000358974 8.37036e-05 0.000328542 
-0.000450893 -0.000451491 0.000865156 -5.1238e-05 -0.000661317 2.90591e-05 0.000869305 -0.000604375 -0.000659684 0.00134747 
-0.000623907 -0.000756344 0.00168752 -0.000924257 -3.6477e-05 0.00112454 -0.0010343 0.000227273 0.000364056 -0.0010452 
0.000431618 -0.000447196 -0.000629235 0.000213114 -0.00077297 -2.51232e-05 -4.32395e-05 -0.000301415 0.000571753 -3.10927e-07 
0.000678147 0.000522175 0.000414755 0.000679509 -3.35736e-05 0.000337337 -0.000528298 -0.000181309 -0.000836285 -0.000430887 
-0.000721705 -0.00020957 -0.000238466 0.000243254 0.00022826 0.000490621 0.000367691 0.000397265 0.000269841 0.000199594 
0.000186929 8.46925e-05 9.89961e-05 5.27023e-05 0.000141438 -0.00031338 -0.000470234 0.000276947 -0.00243364 0.00195347 
-0.00159886 0.00196772 0.000610217 -1.35087e-05 -0.000123361 -0.000605214 0.000170975 0.000608132 0.000101122 -0.00122283 
-7.97944e-05 0.00247469 0.00230302 0.0025722 0.00288223 0.00153132 0.00312332 0.00242997 0.00321229 0.00232014 
0.00162156 0.000802885 5.53411e-05 -0.000964816 -0.00161367 -0.00202564 -0.00167826 -0.0014922 0.0002641 0.00129061 
0.00170896 0.000305009 -0.000697326 -0.000758548 -0.000349319 1.73835e-05 0.00117114 -0.000234368 -0.000414448 -0.000391744 
0.000339967 0.000466932 -0.000139937 -0.00092962 0.000875955 0.000295025 -0.000628965 -0.000131543 0.000867597 -0.000320948 
-0.000802164 0.0011458 -0.000282571 -0.00126272 0.00147163 -0.00122269 -0.000487756 0.00114867 -0.00130548 0.000791433 
0.00045529 -0.000429268 0.00120754 -6.99838e-06 0.000433878 0.000747965 -0.000135133 0.000506242 -0.000111085 -0.000290407 
-9.67053e-05 -0.000810092 -0.000228987 -0.000712745 -0.000205613 -0.000122994 9.31257e-05 0.000543476 0.000406531 0.000829757 
0.000393044 0.000576584 5.21791e-05 7.10937e-05 -0.00026397 -0.000269462 -0.000312831 -0.000340087 -0.00021323 -0.000276089 
-6.34498e-05 1.42215e-06 9.46365e-05 4.64462e-05 0.000348823 0.000117538 -0.00111279 0.00190717 -0.00293296 0.00184031 
-0.00154883 -0.00021934 0.000301593 -0.00026052 0.00044186 0.00031628 0.000337288 0.000146208 -0.000385867 -0.000270788 
0.000277874 0.00155814 -0.000692963 0.000696249 -0.00234064 -0.00176289 -0.00248028 -0.0019611 -0.00167802 -0.00147975 
-0.000946127 -0.000204582 0.000916875 0.00128759 0.00220594 0.00229217 0.00232429 0.000997661 0.000493472 -0.00133613 
-0.0015233 -0.0018287 0.00043646 0.0015842 0.000676764 -0.000370921 -0.000467121 -0.000702223 0.000439796 0.00063985 
-0.000106037 -0.000321583 -0.000592161 0.000973805 0.000278438 -0.001219 0.000377667 0.00073281 -0.000753873 -0.000536074 
0.0010376 -0.000286315 -0.000997622 0.0014418 -0.000317088 -0.000565585 0.00172197 -0.00052266 -1.12446e-05 0.00127593 
-0.00137679 0.000529244 -0.00033243 -0.00121524 0.000389329 -0.00133884 -8.20742e-05 -0.000325107 -0.000438202 0.000417673 
-3.21092e-05 0.000525596 0.000583156 0.000260466 0.000710061 -0.000194267 0.000275541 -0.00066569 -0.000245468 -0.000863266 
-0.000374269 -0.000652434 -8.9606e-05 -0.000263508 0.000247855 6.40044e-06 0.000399498 0.000173402 0.000424975 0.000253108 
0.000176731 0.000158907 2.23025e-05 -0.000417599 -0.000200253 0.000982022 -0.00261994 0.00271657 -0.00290098 0.000774544 
0.000161632 -9.64631e-05 0.0011907 0.000143689 -0.000237952 -0.000400799 -7.71849e-05 0.000471191 0.000104157 -0.000700967 
2.87748e-05 0.000320651 -4.83593e-05 0.000779996 -0.000821241 0.000499118 -0.000179151 0.00102477 0.000216807 0.000326015 
-0.00105079 -0.000919064 -0.00222266 -0.00215837 -0.00290713 -0.00211069 -0.00279146 -0.00137275 -0.000646649 0.00145689 
0.00202927 0.00166559 0.000626812 -0.000908558 -0.002291 0.000104297 0.000834738 0.000948162 -0.000221235 -0.000633126 
-0.000475166 0.000733009 5.11234e-05 0.000204284 -0.00101932 0.000310214 0.00109101 -0.00107704 -0.000226746 0.00139411 
-0.000518841 -0.000597961 0.00105175 6.57021e-05 -0.00138634 0.00136249 -0.000779696 -0.00131101 0.00108634 -0.0015664 
-0.000243367 0.000879402 -0.00117693 0.00140003 0.000226764 0.000229268 0.00143236 -0.000400762 0.00101013 -0.000331517 
-6.36167e-05 -0.000303783 -0.000641453 -0.000423916 -0.000426933 -0.000371552 0.000273992 -8.60512e-05 0.000911313 0.000121602 
0.00106702 2.67251e-05 0.000765464 -0.000203014 0.000333067 -0.000323793 -8.11482e-05 -0.000377284 -0.000367367 -0.00021247 
-0.000349518 -3.68157e-05 0.00060889 0.000260305 -0.000933871 0.00280855 -0.00357699 0.00247444 -0.00119902 -0.000653631 
0.000571074 -0.000916283 0.000146572 0.000294469 0.000232837 0.000176758 -3.57802e-05 -5.11208e-05 -7.37155e-05 -0.000285314 
-0.000310837 0.0014325 0.00114729 0.00170018 0.00107734 0.000770321 0.00165909 0.000991701 0.00246312 0.00131688 
0.00284485 0.00243377 0.0033862 0.00305818 0.00337336 0.00305811 0.00194543 0.00177518 5.77287e-05 -0.000454742 
-0.00267832 -0.00282409 -0.00075532 0.000833039 0.00181043 0.00161563 -0.000885152 -0.001397 -0.000348375 0.000567743 
0.00107198 -0.00045036 -0.000752036 0.000194573 0.000403163 0.000448174 -0.000818695 -9.70389e-05 0.000974355 -0.000482589 
-0.00111688 0.00107294 -0.000211612 -0.00145006 0.00134265 -0.000128132 -0.00105962 0.00184589 -0.000200067 -7.03138e-05 
0.00200056 -0.000802956 0.000607485 0.000620383 -0.00161048 0.000856744 -0.00154728 -0.000304809 -0.000140098 -0.000879834 
0.000855667 -0.000348001 0.000998019 0.000310555 0.000604293 0.000321395 1.48475e-05 -0.000183504 -0.000453836 -0.000590051 
-0.000562591 -0.000526587 -0.000393893 -0.000146352 -0.000205324 0.00029635 4.05539e-06 0.000588754 0.000134094 0.000649108 
0.000229637 -0.000596781 -8.31638e-05 0.00085226 -0.00333318 0.00386545 -0.00277596 0.000650977 0.000473843 -0.00167818 
0.000557474 6.74272e-05 0.000420978 0.000544439 -2.84739e-05 -0.000322409 -0.000148367 0.000202902 6.26574e-05 -0.000511611 
-6.71536e-05 0.00193725 -0.00107825 0.000843143 -0.00293476 -0.00161374 -0.0029746 -0.00295317 -0.00256565 -0.00450766 
-0.00289118 -0.0051587 -0.00326253 -0.00484956 -0.00247464 -0.00337738 -0.00161876 -0.00155991 0.000104593 0.00150625 
0.00219736 0.00279834 0.00279867 -0.00104169 -0.00207243 -0.00235753 4.81487e-05 0.0017004 0.00134366 -0.000878777 
-0.000544819 -0.000824446 0.00106129 0.000550274 -0.000728697 -0.00042597 0.000193286 0.000780064 -0.0007968 -0.000551338 
0.00133245 -0.000223849 -0.000554957 0.00106432 0.000683187 -0.00146457 0.00150302 -0.000240401 -0.001581 0.0012646 
-0.00159113 -0.000933747 0.000661537 -0.00167613 0.000592107 0.000539766 -0.000721202 0.00208823 -0.000972218 0.00140949 
-0.000526182 -9.65004e-05 -0.000343276 -0.000861591 -0.000364127 -0.000512531 -0.000217937 0.00038771 1.11019e-06 0.00107618 
-4.39593e-05 0.00121847 -0.000351855 0.000973431 -0.00066195 0.000505138 -0.000725486 -8.83588e-06 -0.000786906 -0.000480661 
0.000581662 -0.000279863 -0.000829515 0.00389322 -0.00410867 0.00275539 -0.00056411 -0.00160632 0.00167387 -0.000861504 
-5.34198e-05 -0.000113932 -0.000305805 0.000259991 0.000457094 0.00017793 -0.000182252 -0.000207194 -3.28353e-05 -3.21144e-05 
0.0013007 -0.000475793 0.000175444 0.000603919 -0.00065495 0.00208067 0.000822943 0.00398416 0.00284708 0.00437413 
0.00429251 0.00422676 0.00432548 0.00346318 0.00343207 0.00170614 0.00138871 -0.000188322 -0.000218611 -0.00135404 
-0.00352184 -0.00311755 -0.00250244 -0.000715966 0.00268716 0.00301281 0.0011434 -0.00142102 -0.00248722 -1.8927e-05 
0.00161388 0.000440018 -0.000266798 -0.000948044 8.08748e-05 0.00073324 0.00033502 -0.000918999 7.7047e-05 0.00106289 
-0.000382215 -0.000918872 0.000869586 -0.000192319 -0.0015262 0.000536475 0.000297447 -0.00191012 0.00179934 -0.00025935 
-0.00055732 0.00227578 -0.000704754 0.00084166 0.00114252 -0.00114981 0.000873452 -0.000671457 -0.00100343 0.000917373 
-0.00183064 0.00184171 -0.00115429 0.00183797 -0.000358987 0.0012641 -0.000388371 0.000560265 -0.000926804 0.000160347 
-0.00121369 0.000157705 -0.000945306 0.000268844 -0.000313592 0.000134341 0.000354947 0.00034879 0.000938158 -0.000775358 
0.000939465 0.000944379 -0.00422489 0.00421312 -0.00274892 -0.00023332 0.00254381 -0.00218202 0.000606489 -0.000471957 
-0.000591342 0.000319384 0.000378957 0.000327058 0.000137904 -0.000106346 -0.000119617 3.28408e-05 -0.000138002 -0.000560384 
-0.00166927 -0.00102397 0.00132605 -0.000721905 0.00144205 -0.000827386 1.2248e-05 -0.000822994 -0.0021129 -0.00182796 
-0.00327519 -0.00257092 -0.00333556 -0.00157466 -0.00172838 7.09617e-05 1.96255e-05 0.00100944 0.00200369 0.00259065 
0.00229584 0.00475469 0.00261639 0.00121088 -0.00244569 -0.00382573 -0.00259079 0.00140461 0.00222654 0.0019764 
-0.00158158 -0.00166364 0.000277925 0.00097805 0.000549284 -0.000993035 -0.000149509 5.62788e-05 0.000692665 -0.000487854 
-0.0011724 0.00152996 -0.000539929 -0.000585537 0.00109628 0.00073439 -0.000719825 0.00110368 0.000941638 -0.00197582 
0.00192868 -0.00139785 -0.000928662 0.000851343 -0.00185893 0.000325764 0.000365543 -0.000994011 0.00170795 -0.000750416 
0.000653108 0.000239729 -0.00113374 0.000724411 -0.00195816 0.000778203 -0.00148305 0.000818782 -0.000418084 0.000700274 
0.000429013 0.000137584 0.000811522 -0.000614121 0.00106823 -0.00110322 0.000474882 -0.00129876 0.0011125 -0.00151436 
-0.0012115 0.00437541 -0.00435935 0.00249426 0.00151067 -0.00362973 0.00234946 -0.00101773 -8.7077e-05 0.000694088 
-0.000289687 -0.000340923 -0.00018225 0.00015198 0.000479867 0.000291108 -0.000169094 -0.000220941 6.11148e-05 -0.000695041 
-0.00168063 0.00316947 0.000345869 0.000967151 0.000246323 -0.00209951 0.000115297 -0.00204905 -8.03081e-05 -0.000766335 
0.000103331 -0.000382812 -0.000344964 -0.000547032 -0.00158796 -0.00168177 -0.00313696 -0.00314695 -0.00216692 -0.00383046 
-0.00363043 -0.0035044 -0.00382652 -0.00089957 0.00191597 0.00449799 0.00400613 -2.17202e-06 -0.00352093 -0.00234387 
0.000247587 0.00243287 0.000637779 -0.000962868 -0.00112762 0.000422294 0.00101121 -0.000292222 -0.000484125 3.52218e-05 
0.000697585 0.000433248 -0.00138702 0.00153495 -0.000304926 -0.00120495 0.000244915 -3.5111e-05 -0.00182931 0.000664377 
0.000398603 -0.00184301 0.00284352 -0.00155083 0.00110096 0.000747351 -0.000813713 0.000566297 -0.000124526 -0.00132734 
0.00145454 -0.00203254 0.0021257 -0.00123586 0.00183561 -0.00045041 0.00118614 -0.000589058 0.000740928 -0.00123615 
0.000867622 -0.00157823 0.00120023 -0.00158242 0.00115877 -0.000463776 0.000659892 -0.00085651 0.0012876 0.00183056 
-0.00465927 0.00470552 -0.00178056 -0.00317359 0.00461832 -0.00280244 0.00103439 0.000638626 -0.000998887 -0.000230064 
-0.000135103 1.20784e-05 0.000299857 0.000222902 0.000115116 7.15316e-05 -1.28487e-05 -9.87689e-05 9.40433e-06 0.00018028 
0.00196638 0.00128747 -0.000991535 0.000586631 -0.00173218 0.000335521 0.000748854 0.00172638 0.00250691 0.00311261 
0.00317644 0.00323 0.00389997 0.00399924 0.0048942 0.00503654 0.00458869 0.00447818 0.00542681 0.00232728 
0.00474885 0.00302174 0.00355668 0.000996396 -0.00203633 -0.00550318 -0.00443521 -0.00189739 0.00345704 0.00407893 
0.000806095 -0.00238341 -0.00241983 0.00148451 0.000766349 0.000615637 -0.00102775 -0.000707216 0.00109683 -0.000203501 
-5.45675e-05 -0.000945872 0.000542436 0.000393538 -0.00182205 0.00154582 -4.23429e-05 -0.000156565 0.000866782 0.00134901 
-0.00129198 0.00145091 -4.14799e-05 -0.0019861 0.00239407 -0.00294378 0.00171239 -0.000658811 0.000219343 0.000584389 
0.000448186 -0.000711925 0.00155774 -0.00266675 0.00229044 -0.00349513 0.00258586 -0.00303198 0.00258692 -0.00213233 
0.00200251 -0.00119238 0.00105352 -0.000252677 -0.00076207 0.000934885 -7.82888e-05 -0.000447501 -0.0023581 0.00490494 
-0.00465526 0.000102021 0.00536124 -0.00596413 0.00352342 -0.000729414 -0.0013422 0.000724731 0.000110111 6.87539e-05 
0.000116583 -0.000313145 -0.000272201 0.00012865 0.000415426 0.000322449 -5.6369e-05 -0.000240771 -0.000184856 -6.40502e-05 
-0.000798306 -0.00357905 0.000236753 -0.00145165 0.000622666 0.000488263 -6.67539e-05 3.4994e-05 -0.00249193 -0.0015249 
-0.00522854 -0.00398698 -0.00655894 -0.00582608 -0.00667592 -0.00627709 -0.00729537 -0.00486786 -0.00422293 -0.00446294 
-0.00206342 -0.00363853 -0.00167843 -0.000767349 0.00258883 0.00557551 0.00656902 0.00224082 -0.00252755 -0.00558341 
-0.00229657 0.00184711 0.00316409 0.000793919 -0.00271995 -0.000213227 0.000600672 0.000510379 0.000477077 -0.00157996 
0.00107335 -0.000108282 0.000700304 -0.0008249 0.000650535 0.00119657 -0.00197295 0.00153637 -0.000982846 -0.000814499 
-0.000481615 0.000639696 -0.00212334 0.00222524 -0.000823942 -0.000176965 0.00198944 -0.00251301 0.0020245 -0.00197293 
0.00028188 -0.000368573 -0.000250291 0.000339934 0.000576193 -2.56634e-05 0.00111897 -0.000566849 0.000698401 -0.000326992 
-0.000402727 0.000562762 -0.00121114 0.00229497 -0.00220972 0.000604361 0.000442427 0.0016632 -0.00415055 0.00303736 
0.00313791 -0.00847159 0.00801862 -0.00418266 -0.000117879 0.00187199 -0.000643829 6.89004e-05 3.61784e-06 -0.000452713 
-0.000166329 0.000152862 0.000147803 9.36378e-05 8.53723e-05 0.000148286 0.000100123 -4.40364e-05 -7.45962e-05 -0.000841285 
-0.0038144 0.00135333 0.00287031 0.000761294 0.00352133 -0.00113821 0.000919876 -0.00133026 -1.82539e-05 0.0013892 
0.000854576 0.0043127 0.00308146 0.0061068 0.00565458 0.0061983 0.00400535 0.00577421 0.00199195 0.00240002 
0.000952675 0.000976812 0.00063032 -0.000428283 -0.00388201 -0.00594976 -0.00733143 -0.00358422 0.00221583 0.00617008 
0.00530917 -0.00206338 -0.00326372 -0.00231481 0.00169969 0.00238361 -0.00104703 -0.000714123 -0.000157908 0.000175811 
0.00105877 -0.00135776 0.000396189 -0.000563976 0.000834678 -0.0015576 0.00015676 0.000972376 -0.0018936 0.00213761 
-0.000388661 0.00066662 -4.06521e-05 0.00151184 -0.00286511 0.00296377 -0.0031998 0.0016863 -0.000286487 -0.000171703 
0.00143149 -0.000209861 0.000214568 0.000888682 -0.00202037 0.0020463 -0.00332895 0.00300623 -0.00354812 0.00373891 
-0.00319007 0.00309645 -0.00351362 0.00271157 -0.000284567 -0.00181654 0.000269154 0.0021779 0.000229956 -0.00748894 
0.0121453 -0.00996982 0.00365725 0.00186085 -0.00268791 0.00102776 -0.000233455 -0.000393273 0.000276014 0.000277412 
-2.82735e-05 -0.000208524 -0.000187909 3.58211e-05 0.000304756 0.000294448 2.30079e-05 -0.000191547 7.81253e-05 0.000146151 
0.000727477 0.00501773 1.75259e-05 0.000521305 -0.00129225 -0.00289323 -0.000301921 -0.00161435 0.00195756 0.000503989 
0.00154666 0.00041382 -0.000688641 -0.000966095 -0.000790373 -0.00243267 -0.00139593 0.000505457 -0.000351056 0.002652 
0.00100032 0.00243994 0.0012782 0.00277805 0.00397957 0.00727503 0.00739771 0.00477319 -0.00250096 -0.00723691 
-0.00600238 -0.00186228 0.00617013 0.00265981 -0.000582118 -0.00236791 -0.00144428 0.00256616 -0.00053072 0.000300689 
-0.000664617 -0.000392936 0.00143842 -0.000941841 0.000840372 -0.000884162 0.00214701 -0.00154088 0.000901732 0.000727715 
-0.00207826 0.00154587 -0.00176331 0.000432415 -0.0006948 0.00185021 -0.00254371 0.00440229 -0.00453454 0.00413525 
-0.00403025 0.00216449 -0.0024637 0.00153763 -0.00178285 0.0025053 -0.00224207 0.00316678 -0.00315416 0.00252946 
-0.00217855 0.0022757 -0.00163849 -0.00118024 0.00408883 -0.00251171 0.000326263 -0.00401927 0.0117773 -0.0152884 
0.0102562 -0.0010165 -0.00458185 0.00389871 -0.00136618 -0.000308842 0.000883197 -0.000151819 -0.000141899 -0.00022602 
-7.57399e-05 4.82712e-05 0.000119147 4.16221e-05 2.62626e-05 0.00015571 0.000164797 -7.40388e-05 -0.000195225 0.000588842 
0.00248088 -0.00234075 -0.00310502 -0.00176665 -0.00248543 0.00109659 0.000368639 0.00174216 0.000966445 -0.000980388 
-0.000922608 -0.00366689 -0.00323874 -0.00407041 -0.00243789 -0.0059469 -0.00326656 -0.00579157 -0.00566141 -0.00565316 
-0.00632311 -0.0044216 -0.00414899 -0.00389671 -0.00503972 -0.00747301 -0.00724849 -0.00403759 0.00147629 0.00930582 
0.00827321 0.00201214 -0.0038715 -0.00663904 -8.26268e-05 0.00327292 0.00113179 -2.35621e-05 -0.00256058 0.00161202 
-0.000691208 0.00100261 -0.000259619 -0.0012501 0.00139136 -0.0012346 0.000918207 -0.00229689 0.00234263 -0.00261117 
0.0013322 0.000229545 -0.00084793 0.00186108 -0.000997148 0.000420153 -0.000618619 0.000298047 -0.00217606 0.00311285 
-0.00396078 0.00516306 -0.00398501 0.0042223 -0.00281851 0.00169467 -0.00107061 3.13233e-05 0.000977754 -0.00181941 
0.00146435 -0.00100045 0.00379318 -0.0068241 0.00500084 -0.00339906 0.00806391 -0.0160056 0.0175539 -0.00849582 
-0.00298393 0.00719941 -0.0043184 0.000201913 0.00195798 -0.00146642 0.000217031 -8.03324e-05 1.16588e-05 0.00019728 
3.75809e-05 -9.13919e-05 -0.00017592 5.6644e-06 0.000188582 0.000228271 9.59468e-05 -9.06362e-05 -0.000218956 -0.000343888 
-0.00246277 -0.00512931 0.00184945 0.000547055 0.00400744 0.00347945 0.000306637 0.00149546 -0.00213756 -7.43474e-05 
0.000237464 0.00122935 0.00307629 0.00556071 0.00707002 0.00656413 0.00993294 0.00831718 0.0104559 0.009023 
0.00819706 0.00677426 0.00500985 0.00426078 0.00527593 0.00545345 0.00705836 0.00331775 -0.0046048 -0.00783706 
-0.0123132 -0.00308109 0.00443573 0.00708784 0.00370108 -0.00392619 -0.00274965 0.000411895 0.00101948 0.00145737 
-0.00204213 0.00129307 -0.00163388 0.00132158 0.00045791 -0.00145668 0.00150402 -0.000756652 0.0018901 -0.00237729 
0.00359346 -0.00333209 0.00258644 -0.0018604 0.000348913 -5.75991e-05 0.000337348 -0.000352872 0.0019274 -0.00148449 
0.00155901 -0.00125793 -0.000189121 -0.000151823 -0.000499471 -0.000184901 0.000434206 -0.001406 0.0026534 -0.00187079 
0.000720577 -0.00402838 0.00769082 -0.00681225 0.00646685 -0.0122456 0.0203168 -0.0186636 0.00519367 0.00692996 
-0.00843 0.00261583 0.00285874 -0.00377794 0.00145145 0.000145855 -0.000432843 0.000526049 -0.000207624 -9.25515e-05 
-0.000118517 3.05243e-05 0.0001039 1.12427e-05 6.73149e-06 0.000102852 0.000163785 2.31261e-05 -5.94271e-05 -0.000541276 
-0.00329877 0.00259618 0.00507329 0.00119327 0.00283994 -0.00334827 -0.00314065 -0.00278517 -0.00267704 0.000667193 
0.000887812 0.000220786 -0.000951365 -0.000844279 -0.00501613 -0.005526 -0.00800098 -0.00877443 -0.00886841 -0.00874076 
-0.00720741 -0.00510956 -0.00374384 -0.00184082 -0.00283787 -0.00437874 -0.00299033 -0.00124308 0.00445087 0.0129792 
0.0102079 0.00697699 -0.00539774 -0.00975565 -0.00437259 0.000774378 0.00622157 -0.000242414 -0.00124094 -0.000669876 
-0.000700756 0.00200464 -0.00157762 0.00211352 -0.00273265 0.00137701 0.000567058 -0.00143858 0.000572807 -0.00115469 
0.0016984 -0.00350127 0.00419761 -0.00452798 0.00458956 -0.00371766 0.00300282 -0.00274213 0.00201045 -0.00339016 
0.00369809 -0.00484914 0.00568136 -0.00527394 0.00581488 -0.00404115 0.0038269 -0.00377635 0.00152133 0.000764743 
0.00270626 -0.00746269 0.00827877 -0.0091349 0.0160962 -0.0235932 0.0174015 -0.000322206 -0.0105503 0.00809246 
0.000905487 -0.00590207 0.00373774 0.00018575 -0.00167019 0.00152 -0.000670625 -0.000138448 0.000140955 -1.46223e-05 
0.000165861 -8.25461e-05 -0.000104244 -2.86415e-05 9.96752e-05 0.000173231 0.000102941 -5.97768e-05 -2.7182e-05 0.000447976 
0.00178563 0.00442423 -0.00127156 -0.00241553 -0.00354307 -0.00434354 9.53117e-05 0.000846554 0.00334318 0.0027053 
0.00269919 -0.00184323 -0.00075181 -0.00116088 -0.0019657 0.0013171 -9.11467e-05 0.00349603 0.00216656 0.00260332 
0.0012902 -0.0004957 -0.00234842 -0.0014064 -0.00233185 -0.00047031 0.00149139 -0.00347587 -0.00671745 -0.0126199 
-0.01385 -0.00467258 0.00446739 0.0121462 0.00844645 -0.00206827 -0.00420833 -0.00479492 0.00318306 0.000438181 
0.0002769 0.000461167 -0.00204875 0.00167246 -0.00193916 0.00361258 -0.00389074 0.0017273 0.000554255 -0.000450824 
0.000411258 -0.000286875 0.00192462 -0.00312455 0.00416809 -0.00501305 0.00520073 -0.0051067 0.00504368 -0.00370954 