# vtk DataFile Version 2.0
Titre
ASCII
DATASET STRUCTURED_POINTS
DIMENSIONS 100 100 1
ORIGIN 0.0 0.0 0.0
SPACING 0.1 0.1 0.0
POINT_DATA 10000 
SCALARS rho float
LOOKUP_TABLE default
-0.000747335 0.00107858 0.00203833 0.00200182 0.00199593 0.000249116 -0.00105104 -0.00225814 -0.0023649 -0.00142436 
0.000236821 0.00139958 0.00163867 0.00058336 -0.000102026 -0.000255664 6.4571e-05 -8.39018e-05 -0.000129768 0.000171451 
0.000325594 -0.000290364 -0.000621944 0.000361746 0.000546918 -0.000429874 -0.000552571 0.000628053 0.000199778 -0.000496046 
-4.91442e-05 0.000564414 -0.000258408 -0.000238207 0.000354341 4.21478e-05 -0.000352957 0.000267422 3.39147e-05 -0.000276178 
0.000189454 9.77743e-06 -0.000217372 0.000230389 -0.000148925 -9.59799e-06 7.47209e-05 -0.000121066 7.11926e-05 -3.69523e-05 
2.42191e-06 2.27689e-05 -1.29872e-05 1.25877e-05 -1.0659e-05 -1.41227e-05 -1.69625e-05 -1.92371e-05 -1.66142e-05 1.49317e-06 
-2.4775e-06 1.98456e-05 8.18376e-06 1.78907e-05 1.60464e-05 2.51604e-05 5.01468e-05 7.53991e-05 0.000122959 0.000164124 
0.000218856 0.000260931 0.000292966 0.000284832 0.000216513 5.47126e-05 -0.000217461 -0.000601658 -0.00105427 -0.00150297 
-0.0018254 -0.00193031 -0.00173808 -0.00131133 -0.000737849 -0.000222272 0.000169067 0.000369311 0.000453773 0.000396321 
0.000160299 -0.000161337 -0.000250875 0.000293694 0.00102272 0.00120206 -0.000334302 -0.00139975 -0.00131491 0.000336611 
7.31122e-06 0.00110368 -0.000707589 -0.000634617 -0.00207497 -0.00203746 -0.00215357 -0.000811111 0.000170168 0.00194496 
0.00170942 0.00132777 -0.00054313 -0.000696344 -0.000375492 0.000609437 -2.1636e-05 -4.89083e-05 -2.22893e-06 0.000586815 
-0.000453365 -0.00077196 0.000417744 0.00117187 -0.000829169 -0.00101068 0.00100197 0.000692796 -0.00120226 -0.000148813 
0.00101872 -0.000301108 -0.00076455 0.000611983 0.000310034 -0.000810236 0.000298616 0.000450268 -0.000700284 0.00029228 
0.000266535 -0.000486609 0.000302285 1.86691e-05 -0.000251984 0.000210892 -6.64519e-05 -9.89952e-05 0.000191229 -0.000137331 
8.13567e-05 1.6363e-05 -6.5211e-05 5.21706e-05 -5.99128e-05 -5.80949e-06 -6.03829e-06 -3.36586e-05 8.72762e-06 -1.20025e-05 
9.85087e-08 1.68795e-05 -5.74616e-06 2.02125e-05 -2.01339e-05 -1.50518e-05 -6.5632e-05 -9.03585e-05 -0.000149036 -0.000194578 
-0.000250242 -0.000286631 -0.000302535 -0.000274856 -0.000199145 -7.17599e-05 7.97146e-05 0.000213696 0.000258025 0.000155793 
-0.00012832 -0.000546415 -0.000990555 -0.00129831 -0.00136418 -0.00118365 -0.000891641 -0.000637012 -0.000477806 -0.000343095 
-0.000156046 -5.46266e-05 -0.000121561 -0.000106074 0.00038102 0.0014252 0.00143937 -9.16078e-05 -0.00128981 -0.000281601 
0.0021874 7.47837e-05 0.0018398 0.00117842 0.00234779 0.00137173 0.00119627 -0.000324978 -0.000593997 -0.000972119 
-0.000363494 0.000107934 0.000558832 0.000827533 0.000623545 -0.000356156 -0.000538544 -9.99565e-05 0.000518866 -7.74843e-05 
-0.000574687 8.63676e-05 0.00108816 -0.000744815 -0.00106029 0.000947921 0.00101234 -0.00161713 -0.00014079 0.00124087 
-0.000209269 -0.00117697 0.000826914 0.00048254 -0.000924052 3.12624e-05 0.000900304 -0.000793798 -8.97137e-05 0.000778956 
-0.000652763 -4.63609e-05 0.000626106 -0.000758765 0.000406417 5.85565e-05 -0.000331391 0.000403804 -0.000239202 6.48165e-05 
4.36312e-05 -0.000126712 6.46603e-05 -6.56929e-05 6.01348e-06 5.88938e-06 3.49869e-06 1.68316e-05 2.70741e-05 1.03002e-05 
3.5635e-05 1.30243e-05 2.92512e-05 2.94802e-05 3.58667e-05 7.26298e-05 9.08047e-05 0.000166515 0.00021475 0.000317406 
0.000382434 0.000466468 0.000482644 0.000457175 0.000322391 9.89386e-05 -0.000231492 -0.000615786 -0.00100604 -0.00132297 
-0.00150562 -0.00152361 -0.00138155 -0.00111977 -0.000769239 -0.000352456 0.000109607 0.000551023 0.000823485 0.000770884 
0.000343473 -0.000222003 -0.000718559 -0.000435872 5.40576e-05 0.00116624 0.000915918 -0.000188207 -0.00203372 -0.000900223 
-0.000934737 -0.00212508 -0.00067678 -0.000556327 -0.000210088 -0.000209057 -0.000477414 1.49709e-05 0.00111608 0.00185894 
0.00239304 0.000833849 -0.000255162 -0.00118458 -0.000830631 -0.000343327 0.000623046 0.000380788 0.000232228 -0.000412641 
-0.000339133 0.000330302 2.02583e-05 -0.000638156 0.000544846 0.000642149 -0.00126599 -8.69746e-05 0.0013484 -0.000540731 
-0.00102082 0.000949761 0.000396519 -0.000933389 3.27175e-05 0.000884012 -0.000563759 -0.000506173 0.00105124 -0.00054875 
-0.000434141 0.00091367 -0.000652236 -1.33002e-05 0.000534151 -0.000534851 0.000236228 0.000156874 -0.000400945 0.000353222 
-0.000233943 2.77824e-05 0.000108786 -0.000111416 0.000148443 -3.0194e-05 5.23118e-05 3.24093e-05 8.42784e-06 1.69565e-05 
9.15695e-06 -2.37245e-05 -8.46551e-07 -6.17967e-05 -4.48075e-05 -0.000117228 -0.000138796 -0.000228328 -0.000298972 -0.000404657 
-0.000493479 -0.000567632 -0.000587813 -0.00053538 -0.0003906 -0.000164476 0.000108848 0.000353246 0.000487489 0.000433051 
0.000177245 -0.000220854 -0.000625352 -0.000889376 -0.000936068 -0.000807233 -0.000633839 -0.000511111 -0.000376359 -0.000110762 
0.000266131 0.000606476 0.000143457 -0.000270354 -0.000785193 0.000456081 0.00160691 0.00160795 -0.000419201 -0.00190883 
0.00101753 0.000565078 0.00372543 0.00282346 0.00364493 0.00223122 0.000405933 -0.000103258 -0.00170736 -0.0010384 
-0.00161831 -0.000884816 -1.93305e-05 0.0012049 0.000863944 0.000558616 -0.000649569 -0.000343392 -3.59715e-05 -0.000157061 
-0.000338536 0.000708721 -1.22017e-05 -9.53391e-05 -0.00021077 -0.000231413 4.13606e-05 0.00116992 -0.00114716 -0.000503414 
0.00122796 4.41438e-05 -0.00124911 0.000724657 0.000501221 -0.000640445 -0.000283067 0.000855492 -0.000378521 -0.000522354 
0.00075582 -0.000112472 -0.000710393 0.00107381 -0.000669176 -4.19406e-05 0.000575635 -0.000743826 0.000476073 -0.000117809 
-0.000159335 0.000326273 -0.00025204 0.000178691 -6.4092e-05 -5.16171e-05 1.27291e-05 -0.000119993 -2.97089e-05 -0.00010414 
-7.80333e-05 -8.64275e-05 -7.31663e-05 -6.05441e-05 -4.99227e-06 1.80279e-05 0.000132973 0.000185092 0.000347412 0.000428671 
0.000587325 0.000633601 0.000682665 0.000577018 0.000410996 0.000100116 -0.000239746 -0.000606121 -0.000879802 -0.00104929 
-0.00108662 -0.00105301 -0.000988883 -0.000904286 -0.0007196 -0.000325825 0.000290686 0.0009212 0.00122227 0.000972699 
0.000108081 -0.000308763 -0.00081787 -0.000113857 -0.000235598 0.00025287 0.000236754 0.000320075 -0.000503554 -0.000641339 
-0.0008561 -0.000513598 0.00158107 -5.26037e-05 0.001561 -0.000639674 0.000223391 0.000170874 0.00142759 0.00241898 
0.0021518 0.00116446 0.00032762 -0.00150483 -0.00143623 -0.00109478 0.000226524 0.00113263 0.000619995 -0.000945142 
0.000236857 0.000496685 -0.000453199 -0.000617875 0.000588732 0.000357329 0.000249828 -0.00105963 -0.000235226 0.00165235 
-0.000459361 -0.00162582 0.00142512 0.000636772 -0.00162735 0.000562876 0.000731967 -0.000641487 -0.000371952 0.000848928 
-0.000216112 -0.000662646 0.000917282 -0.000345301 -0.000480282 0.00078648 -0.00055861 -6.33584e-05 0.000577658 -0.000694888 
0.000547951 -0.000176223 -0.000142995 0.000289258 -0.000343271 0.000245168 -0.000113013 8.86379e-05 0.000103169 8.02013e-05 
0.00018838 0.000167838 0.000209987 0.00022335 0.000181658 0.000162219 5.1191e-05 -4.96882e-05 -0.000213082 -0.000375671 
-0.000534197 -0.00065391 -0.000687725 -0.000620235 -0.000429767 -0.000143535 0.000178203 0.000465702 0.000619464 0.000619267 
0.00045363 0.000219567 -1.8838e-05 -0.000194004 -0.000338937 -0.000484141 -0.000591368 -0.000545053 -0.000201746 0.000659071 
0.000973832 0.00150367 0.000153297 -0.000381538 -0.00127696 -0.000185251 0.00109637 0.00171641 0.000267191 -0.00183439 
-0.000853972 0.00276432 0.00129991 0.00234058 0.00149777 -0.00016999 -0.000844565 -0.00205987 -0.00194279 -0.00218933 
-0.00218553 -0.00123299 -5.10978e-06 0.000679217 0.00204265 0.00091988 0.000535773 -0.000360436 -0.00128859 -0.000686614 
0.00123153 2.15404e-05 -0.000455841 0.000392702 0.000509376 -0.00082475 -0.000116526 -1.39855e-05 0.00128379 -0.000660504 
-0.00149239 0.00150601 0.00102109 -0.00240673 0.000751685 0.00151508 -0.00154504 -0.000256897 0.00149529 -0.000962012 
-0.000275344 0.000693945 -6.5963e-05 -0.000836047 0.000971547 -0.000335415 -0.00048458 0.000993001 -0.000764678 0.000256027 
0.000312272 -0.000633657 0.000575299 -0.000388261 8.06062e-05 0.000114087 -0.000253983 0.000193162 -0.000275852 -1.30588e-05 
-0.000252267 -0.000229611 -0.000312916 -0.000349994 -0.000380446 -0.000331322 -0.000308981 -0.000123246 -2.14021e-05 0.000257129 
0.000387465 0.000619302 0.000629801 0.000641507 0.000411815 0.00017018 -0.000200424 -0.000476174 -0.00070873 -0.000786315 
-0.000800582 -0.000770326 -0.000743984 -0.000659991 -0.000403811 7.78559e-05 0.000734324 0.00127315 0.0010481 0.000917763 
-0.000440272 8.98969e-05 -0.000301063 0.000681083 6.33319e-05 -0.000438891 -0.000633231 0.000110494 0.000733184 0.00020811 
0.000881758 0.00214106 0.000459781 0.00272346 0.000610198 0.00154947 0.000482687 0.00200895 0.00208078 0.00299793 
0.00196006 0.00218213 -0.000680457 -0.000788382 -0.00236448 -0.00169722 -0.000259205 0.00123245 -3.56372e-05 0.00124127 
9.58626e-05 -0.000584728 -0.000436534 0.000550826 -0.000789436 0.000537629 0.000527403 -0.000267884 -0.000429612 -0.000438633 
0.00101204 0.000585064 -0.00186462 0.000236479 0.00229987 -0.0022273 -0.000269409 0.0019662 -0.00108597 -0.000892078 
0.00158537 -0.000586756 -0.000767088 0.00110121 -0.000292682 -0.000584667 0.000865055 -0.000341598 -0.000489999 0.000873825 
-0.000913831 0.000354018 0.000137794 -0.000538523 0.000662693 -0.000505487 0.000349518 -1.41612e-05 2.79532e-05 0.00031933 
6.21213e-05 0.000447648 0.000288994 0.000512167 0.000469487 0.000513112 0.000440665 0.000330612 0.000133764 -7.83508e-05 
-0.000339592 -0.000514444 -0.000645392 -0.000602753 -0.000451924 -0.000171964 0.000147285 0.00041496 0.000594444 0.000611413 
0.000555714 0.00041562 0.000269599 5.32122e-05 -0.000213916 -0.000567537 -0.000805998 -0.000304653 -0.000129695 0.00167233 
0.00110523 0.00164552 -0.000259325 -0.000701627 -0.000942692 -8.49086e-05 0.000683992 0.000718387 -9.56136e-05 -0.00061342 
-0.00058089 0.000188321 -0.000980333 0.000402913 -0.00131802 -0.00181339 -0.00248531 -0.00296328 -0.00239615 -0.00307971 
-0.00124261 -0.00123033 0.000149597 0.00187631 0.00177041 0.00221381 0.00181563 -0.000850409 -0.00198491 -0.000261815 
-0.000204637 0.000201027 0.000580819 7.02969e-05 -0.000169117 0.000752388 -0.00122111 -0.000263909 0.0010454 0.000310416 
-0.000665634 -0.000685471 0.000605798 0.00128867 -0.00166684 -0.000539232 0.00226376 -0.00106414 -0.00155166 0.00245959 
-0.000938823 -0.00103396 0.00150117 -0.000351698 -0.000912648 0.00113764 -0.000404801 -0.000589879 0.000920517 -0.000526997 
-8.41875e-05 0.00080721 -0.000736056 0.000693523 -6.05933e-05 -0.000203375 0.000524397 -0.000567098 0.000384186 -0.000450983 
-8.44973e-05 -0.000373975 -0.00047036 -0.000478418 -0.000643509 -0.000577511 -0.00056214 -0.000439891 -0.000191769 -7.13076e-06 
0.000351849 0.000477853 0.000705748 0.000584129 0.000511617 0.000136355 -0.000110442 -0.000455001 -0.000572215 -0.000654649 
-0.000594713 -0.000528409 -0.000430254 -0.000285907 4.9843e-05 0.000560318 0.000634071 0.00151358 9.23141e-05 0.00101403 
-0.000548574 0.000687913 0.000498965 0.000800165 7.65692e-05 -0.000711345 -0.000663018 0.000170675 0.000580296 -0.000459858 
-0.000775993 0.00153855 -1.19833e-05 0.00344516 0.000774615 0.00265373 0.00160957 0.00245385 0.002612 0.00188716 
0.0029092 -0.000582723 0.000158499 -0.00255429 -0.002976 -0.00203987 -0.000386059 -0.00102112 0.00193475 0.00166278 
0.000673993 -0.000821588 -5.09638e-05 -0.00111771 0.00070167 -0.000151975 -0.000285549 0.00119586 -0.000168886 -0.00138991 
0.000184615 0.00152972 -0.00047524 -0.00110451 -2.2167e-05 0.00208841 -0.00157315 -0.00102953 0.00216521 -0.000399865 
-0.00194068 0.00221776 -0.000340894 -0.00154765 0.00174985 -0.000519257 -0.000824678 0.00118542 -0.000486037 -0.000413477 
0.00088866 -0.000802083 -2.56289e-05 0.000316603 -0.00105401 0.000557703 -0.000702768 -6.50587e-05 0.00010474 -0.000415422 
0.000555854 -0.000170363 0.000709558 0.000303531 0.000767626 0.00058997 0.000678514 0.000465832 0.000301855 -4.22595e-05 
-0.000282382 -0.000598376 -0.000672564 -0.000705901 -0.000481076 -0.000205593 0.000126834 0.0004033 0.000510881 0.000546645 
0.00041417 0.000331368 0.000208486 4.35601e-06 -0.000324015 -0.000170596 -0.00120314 0.000661637 -0.000423396 0.00204363 
0.000929304 0.00108131 -0.000219376 -0.000741865 -0.000505569 2.20937e-05 0.000345521 0.000224196 -7.54013e-05 -0.000373188 
0.000141833 0.000313679 -0.000521439 0.00115595 -0.00215933 -8.8744e-05 -0.00316085 -0.00104624 -0.00290854 -0.000253854 
-0.000673131 0.00036774 0.00237619 0.00197304 0.00267814 0.00407478 0.000980031 -0.000734676 -0.00107567 -0.00184126 
-0.00135264 0.00034916 0.000803275 0.000286961 0.00100604 -0.000767211 -0.000275356 4.08073e-05 -0.000684933 0.000784017 
0.000895816 -0.000934215 -0.00114667 0.00128229 0.00105248 -0.00177537 -0.000458015 0.00215658 -0.000673749 -0.00196768 
0.00232385 -7.42919e-05 -0.00216579 0.0020242 -5.98761e-05 -0.00177739 0.0019497 -0.000730101 -0.000661714 0.00116756 
-0.000774437 -5.34828e-05 0.000749641 -0.000561469 0.000597112 0.000559919 -0.000243292 0.0012322 -0.000340912 0.000814073 
-1.94356e-05 1.3963e-05 2.06367e-05 -0.000602613 -0.000270101 -0.000850817 -0.000481512 -0.000649781 -0.000273511 -4.26871e-05 
0.000274499 0.000615485 0.000663854 0.000782921 0.000448251 0.000304207 -0.000159525 -0.000268196 -0.000468991 -0.000355035 
-0.000311025 -0.000251493 -0.000127937 2.68007e-06 -0.00030811 0.00118749 -0.000578457 0.00181222 -0.000642391 0.000805266 
-4.79827e-05 0.000653559 0.000862426 0.000497057 -0.000176195 -0.000727922 -0.000465314 0.000275761 0.000360047 -0.000397796 
-0.000649211 -0.00171947 0.00101969 -0.000868137 0.00125063 -0.000143887 0.000757534 -2.67415e-05 0.000319608 0.00058693 
-0.00129366 -0.00122995 -0.00250077 -0.00459584 -0.00314852 -0.00164976 -0.00271853 0.000773729 0.0016254 0.00250188 
0.0012568 0.000974076 -0.00188373 -0.000453243 -0.000467685 -0.000293188 0.000627335 0.000538121 0.000277207 -0.000520302 
-0.00069187 -8.95397e-05 0.00154394 -0.000365373 -0.00122309 -0.000122773 0.00232665 -0.00159019 -0.00129535 0.00229866 
-0.000199086 -0.00220518 0.00200221 0.000462673 -0.00233743 0.002063 7.02703e-05 -0.0018016 0.00216206 -0.00101422 
-0.000310068 0.0011303 -0.000969859 0.000230836 0.000193256 -0.000960253 9.56991e-05 -0.00066337 -0.000925332 5.37544e-05 
-0.00132462 0.000376695 -0.000819724 0.000494621 -8.49866e-06 0.000618455 0.000481653 0.000557926 0.000338836 0.000113443 
-0.000271038 -0.000472928 -0.000742333 -0.000644538 -0.00055981 -0.000230411 3.92942e-05 0.000200727 0.000288261 0.000148272 
0.000176361 -4.8031e-05 -1.61914e-05 0.000562292 -0.00108971 0.00131967 -0.00186856 0.00121673 -0.000358225 0.0012652 
0.00104607 0.000592566 3.18546e-05 -0.000483657 -0.000396338 -0.00012041 4.51747e-05 0.000159409 7.73939e-05 -0.000855304 
-0.00311186 0.000847154 0.000107208 0.00062934 0.00196422 -1.74437e-05 0.00155588 -0.000522183 0.00243167 0.00104959 
0.00277538 0.00369634 0.0035748 0.00254613 0.0054157 0.00221063 0.000835798 -0.000590159 -0.0020141 -0.0029335 
-0.00175129 -0.000730072 0.000247193 0.00231432 0.000607629 2.77366e-05 -0.000462087 -0.000772423 -6.03926e-05 -0.000359408 
0.00135914 0.00029076 -0.00123792 -0.00055842 0.00112259 0.000851953 -0.0014273 -0.000889897 0.00249299 -0.000698916 
-0.00212172 0.00236563 0.000199811 -0.00236335 0.00178733 0.000627949 -0.00262379 0.0021489 -0.000396017 -0.00171645 
0.00215392 -0.0016522 0.000248339 0.000558642 -0.000804219 0.000620552 0.000364348 -4.05107e-05 0.00120111 0.000250199 
0.000820911 0.000863709 -1.50421e-05 0.000894014 -0.000675836 0.000388617 -0.000930229 -2.71366e-05 -0.000649261 7.90837e-05 
5.23477e-05 0.000487955 0.000633624 0.000570473 0.000575953 0.00012248 0.000112097 -0.000214946 -4.20706e-05 -0.000111073 
0.000198687 0.00017763 -0.000669458 0.00125593 -0.00206818 0.00214323 -0.00131682 0.00129854 -9.95578e-05 6.89287e-05 
0.000291368 0.000405045 0.000686948 0.000332609 -0.000340118 -0.000742374 -0.000463885 0.000265096 0.000662432 -0.000298864 
0.000269143 0.00164652 -4.84757e-05 0.000933066 -0.000149322 -0.0006992 -0.00218767 -0.00190275 -0.00245108 -0.00322007 
-0.00328548 -0.0027227 -0.00607321 -0.0037981 -0.0022775 -0.00285608 0.000188516 0.00101054 0.00310344 0.00264533 
0.00341509 7.27401e-05 -0.000268208 -0.00175911 -0.00179925 -0.000281714 0.000305247 0.00149452 0.000350552 -0.000450215 
-0.000274544 -0.00086302 4.56344e-05 0.00217083 -0.00135579 -0.000840046 0.000252914 0.00162374 -0.000830416 -0.00198729 
0.0027168 -0.000219623 -0.00249118 0.00217144 0.000387817 -0.00228291 0.0015963 0.000989003 -0.00263423 0.0028023 
-0.000640668 -0.000994196 0.0024669 -0.00193391 0.00130731 -0.000162988 -0.000396781 0.000103442 -0.00040142 -0.00096824 
4.63899e-05 -0.00144873 0.00011737 -0.000886628 0.000110296 1.45184e-05 0.000226614 0.000491274 0.000191241 0.000243165 
-0.000175832 -0.000368604 -0.000516917 -0.000597882 -0.000369189 -0.000208022 -2.18989e-05 0.000149468 1.61068e-05 -0.000174313 
-0.000386396 0.000648063 -0.00177888 0.00269336 -0.00240972 0.00200617 -0.00124863 0.000134267 0.000267236 0.000415863 
0.000907464 0.00053847 8.87517e-05 -0.000275535 -0.000393795 -0.000324874 -0.000220655 -2.35776e-05 0.000221148 0.000408057 
-8.66081e-05 -0.00277843 0.000325495 -0.0022604 0.00182742 -0.00117945 0.00115684 0.0016673 0.00158543 0.00315492 
0.00386649 0.00486551 0.000859465 0.00544974 0.000980499 0.00124046 -0.00139351 -0.00251309 -0.00371163 -0.00343022 
-0.00261501 -0.00174778 0.00121367 0.00166763 0.00266684 0.000895275 -0.00108793 -0.000341431 -0.0020235 0.000468361 
0.00122202 0.000152934 0.000304349 -0.000980757 -0.00118617 0.00228041 -8.69938e-05 -0.00132374 -0.000310137 0.0016531 
0.000129989 -0.00279264 0.00272929 0.000281571 -0.00266621 0.00225984 0.000355067 -0.00214161 0.00143787 0.00060941 
-0.00298926 0.00277408 -0.0020605 -0.000522787 0.00134397 -0.00234873 0.00159901 -0.00104252 0.000570197 0.000169324 
0.000663242 5.14483e-05 0.00127332 -0.000643677 0.00128544 -0.00119183 0.000751434 -0.001263 0.000372601 -0.000749853 
0.000474754 4.10028e-05 0.00061904 0.000435026 0.000291095 0.000245325 -0.00022553 -6.28916e-05 9.59719e-05 0.000292576 
-0.000624123 0.00239397 -0.00313019 0.00298905 -0.00263789 0.00111118 1.89697e-05 0.00010994 0.000486941 -0.000132025 
2.93941e-05 0.000275199 0.000452143 0.000257425 -0.000336829 -0.000767123 -0.000549086 0.000163663 0.00044807 -0.000709072 
-0.00450427 -0.000426556 -0.000116678 -0.000201656 0.00316177 -0.00187076 0.00214599 -0.00186723 -0.00104225 -0.00189814 
-0.000263495 -0.00306466 -0.00275308 0.000453079 -0.00132387 0.00277715 0.00197737 0.00444408 0.00394242 0.00467935 
0.00223236 0.00150925 -0.00115953 -0.00257267 -0.00198439 -0.00291892 0.000909115 0.00227461 0.00057548 0.000938687 
-0.000918429 -0.00205554 0.00126741 -0.000277818 0.00154666 -0.000568494 -0.00208781 0.00174243 0.000699798 -0.000866566 
-0.00123201 0.00169734 0.000783733 -0.00334563 0.0027181 0.000179956 -0.00262115 0.00200053 0.000246411 -0.00199777 
0.00180857 0.000685473 -0.00226779 0.00401859 -0.00253184 0.00189181 0.000458975 -0.000859611 0.00143661 -0.00119792 
0.000421901 -0.000653233 -0.000240449 -0.000427758 0.000173911 -0.000317828 0.000906835 -0.000168821 0.00105964 -0.000236756 
0.000451992 -0.000492544 -0.000216921 -0.000490739 -0.000235853 -3.70065e-05 0.000315772 -0.000213143 0.000167412 0.000728914 
-0.00293596 0.00362839 -0.00396822 0.00308224 -0.000922003 0.000159215 0.000243679 -0.00066223 9.86266e-05 0.000319433 
0.000536193 0.000469869 9.76678e-05 -0.000204159 -0.000352642 -0.000437973 -0.000451053 -0.000131695 0.000611936 0.000205103 
0.000140142 0.00347938 0.000135254 0.00303134 1.28246e-05 -0.0001564 4.88082e-05 -0.00164125 -0.00132002 0.000186351 
0.000905978 -0.0025284 0.00022249 -0.00256172 -0.00229093 -0.00382957 -0.00506979 -0.00535177 -0.00480023 -0.00403067 
-0.00254115 2.30775e-05 0.000411076 0.00360046 0.00395016 0.000680695 0.00193135 -0.00303541 -0.00273024 0.000194556 
0.000462002 0.00148117 0.00130124 -0.00231576 0.000350592 -0.000840482 0.00149019 0.000963893 -0.00285705 0.00125322 
0.000779635 -2.36935e-06 -0.00189027 0.00147633 0.00158559 -0.00390235 0.00337006 -0.000219068 -0.00189713 0.00199609 
8.67688e-05 -0.00193461 0.00166404 -0.000635862 -0.00249018 0.00303151 -0.00447458 0.00281837 -0.00235953 0.000921048 
-0.000272239 0.000418415 -1.75333e-05 0.000855809 -0.000759356 0.000922397 -0.00147404 0.000572903 -0.0015721 0.000461408 
-0.000955136 0.000656354 -0.000138371 0.000576569 -3.23722e-06 -0.000149446 0.000192456 -0.000381009 -0.00128269 0.00359294 
-0.00464183 0.00524827 -0.00331942 0.000934169 -0.000118294 -0.000857895 0.000702418 0.000187361 0.000238344 3.12478e-05 
-0.000145353 7.69629e-05 0.000318498 0.000216288 -0.000264104 -0.00070938 -0.000648099 -0.000133708 0.000420525 0.00114119 
0.00216748 -0.00345024 -0.000863642 -0.00245203 -0.00247183 -0.000112548 -0.00144812 0.00031668 -0.000827294 0.00414811 
0.00112487 0.00268338 0.00396186 0.00304561 0.00670038 0.00473759 0.0065934 0.00535695 0.00522258 0.00241475 
0.00210717 -0.000814031 -0.00343665 -0.00177031 -0.00504172 -0.00345582 0.00120863 0.000884724 0.00371796 0.00238997 
-0.00269674 -0.0006493 -0.00172789 0.000738901 0.00226978 -0.00109332 0.000193083 -0.00160698 0.000825772 0.00215761 
-0.00286122 0.000718112 0.00057437 0.000692612 -0.002234 0.00111864 0.00195104 -0.00451594 0.00374279 -0.00136879 
-0.00137111 0.00143741 7.72125e-06 -0.00165605 0.0028607 -0.00107722 0.000261217 0.00281147 -0.00301936 0.00404196 
-0.00338694 0.00257965 -0.00241286 0.00135294 -0.00168713 0.00143673 -0.001213 0.00197416 -0.000852506 0.00186918 
-0.000764525 0.000955669 -0.000805306 0.00042139 -0.000374293 -5.94677e-06 0.000175919 0.00201102 -0.0043103 0.00604266 
-0.00631514 0.0032815 -0.000889273 -0.000534029 0.00155381 -0.000495939 3.62486e-05 -0.000287721 -0.000286091 0.000178729 
0.000388484 0.000321083 6.86103e-05 -0.000158761 -0.000287997 -0.000430683 -0.000526029 -0.000252395 0.000197284 -7.62843e-05 
-0.00427272 -0.00443792 0.000689606 -0.00237226 0.00324816 0.00168821 0.00173059 -4.46052e-05 -0.000302771 0.000763425 
-0.00351567 -0.00173013 -0.005519 -0.00471417 -0.00483802 -0.00688132 -0.00517239 -0.00447975 -0.00353446 -0.00122773 
0.00183459 0.00142486 0.00311336 0.00657778 0.00176109 0.0047679 0.00050383 -0.003607 -0.00329723 -0.00271038 
-0.000117296 0.00468794 -0.000267806 0.000672823 -0.00210017 -0.00130053 0.00233278 -0.000684967 0.0013456 -0.00220312 
-7.31911e-05 0.00281722 -0.0025574 0.000514239 6.31461e-05 0.00153116 -0.00268852 0.00154377 0.00190461 -0.00422904 
0.00473635 -0.00221244 0.000336448 0.000736732 0.000232305 -0.00237733 0.00293042 -0.00405051 0.00197006 -0.00137315 
-0.000602245 0.00143196 -0.00135924 0.00191201 -0.000704386 0.000797644 -0.000179435 -0.000556167 -4.82368e-05 -0.00118742 
0.000271593 -0.000848084 0.000335978 -0.000388637 0.000850019 -0.000793593 -0.00168277 0.00440335 -0.00703498 0.00659951 
-0.0029126 0.000373629 0.00177514 -0.00196576 0.000383801 -0.000333158 -4.78174e-05 0.000497247 0.000239084 -3.17428e-06 
-0.000158252 -5.17124e-05 0.000189224 0.000192209 -0.000165691 -0.000595711 -0.000680092 -0.000229172 0.000585028 6.37063e-05 
-0.0022938 0.00425266 0.00204128 0.00271881 0.00330085 0.00102741 -0.000370404 -0.00268279 0.000435205 -0.00153065 
0.00160219 0.0010242 0.00130223 0.00415472 0.00352032 0.00287971 0.00338929 0.00191151 -0.00166123 -0.000952993 
-0.00314466 -0.0063032 -0.00391407 -0.0042094 -0.00664423 -0.000703338 -0.00150351 0.00302855 0.00636517 0.00223776 
0.000500026 -0.00340831 -0.00411806 0.00227953 0.000415198 0.00208075 -0.00041536 -0.00267708 0.00190081 -0.00126555 
0.00260133 -0.00209396 -0.00100653 0.0031452 -0.00247347 0.0008765 -0.000927512 0.00245021 -0.00368403 0.00221206 
0.000590699 -0.00403745 0.00446073 -0.00384 0.00144739 -0.000446063 0.000938251 -0.00180472 0.00430259 -0.00449127 
0.00546051 -0.00465895 0.00363236 -0.00347183 0.00193055 -0.00252596 0.00182967 -0.00189204 0.00236223 -0.00151742 
0.00224356 -0.00105101 0.0015285 -0.001966 0.00194047 0.000790867 -0.00459155 0.00810585 -0.00694867 0.00290061 
0.000388722 -0.00289876 0.00189445 -0.000424549 0.000271287 0.000613233 -0.000265636 -0.000306751 -0.000238052 1.01547e-05 
0.000278917 0.000245045 3.36141e-05 -0.000134904 -0.000211673 -0.000341636 -0.000524098 -0.000439598 0.000320825 0.00163808 
0.00423101 0.00103734 -0.00249136 -0.00137579 -0.00437442 -0.00119585 -0.00503494 -0.000982776 -0.000408977 -0.000849729 
0.00386957 -0.002247 0.00176904 0.000461988 0.000265973 0.000145616 0.00306645 0.00246865 0.00345705 0.00749661 
0.00636458 0.00453593 0.00856255 0.00304757 0.0039664 0.00308526 -0.00188297 -0.00346753 -0.00547538 -0.00654624 
0.00219642 0.00245257 0.00488671 0.00114659 -0.0046357 0.000334544 -0.00125109 0.00194397 0.00154256 -0.0027932 
0.00171769 -0.00241032 0.00336662 -0.0015548 -0.00169245 0.00326495 -0.00255133 0.00151671 -0.00173139 0.00350801 
-0.00448554 0.00416536 -0.00100653 -0.00144781 0.00386997 -0.0032115 0.00218106 -0.000848325 -4.70454e-06 -0.00122669 
0.0017694 -0.00352277 0.00433987 -0.00413489 0.00474593 -0.00308609 0.00314942 -0.00187628 0.00118421 -0.00112758 
-0.000324441 -0.000501924 0.000973203 -0.00135629 -0.00183558 0.0070521 -0.0109656 0.00883632 -0.00364972 -0.00134113 
0.00377574 -0.00194502 0.000728254 0.000115849 -0.000802928 -0.000167816 0.00010491 0.000230097 0.00031468 2.42329e-05 
-0.000175711 -0.000109001 9.81863e-05 0.000162328 -7.92128e-05 -0.000445535 -0.000595208 -0.000359501 7.1954e-05 0.00097712 
0.000508045 -0.0076285 -0.00265038 -0.00336521 0.00030706 0.0038161 0.000635871 0.00572055 -2.44235e-05 0.00347419 
0.0017031 -0.00391468 0.000563362 -0.00363119 -0.00410507 -0.00492597 -0.00443621 -0.00869935 -0.0081165 -0.00693312 
-0.00907072 -0.0077952 -0.00253425 -0.00644138 0.000300681 -0.00103835 0.00162888 0.00639456 0.00618671 0.00532106 
0.00182365 -0.00742736 -0.00358272 -0.00258424 0.00269749 0.00504216 -0.0028099 0.000860755 -0.00252833 0.000434037 
0.00249206 -0.00227288 0.00216981 -0.00368928 0.00381766 -0.00129587 -0.00160978 0.00281085 -0.00246475 0.00181429 
-0.00251636 0.00393453 -0.00601761 0.00574534 -0.00478548 0.00154256 2.03627e-05 -0.00116671 0.000498679 0.00103757 
-0.00174791 0.00277879 -0.00250951 0.00183992 -0.00193536 0.000613943 -0.00144347 0.000613237 -0.000902133 0.00166765 
-0.000845199 0.000286026 0.0003922 0.00382506 -0.010437 0.0140449 -0.0101888 0.00235732 0.00459344 -0.00618522 
0.00345855 -0.0014281 -0.00042553 0.000502136 0.000327203 0.000176243 5.64685e-05 -0.000262513 -0.000279249 -4.05577e-06 
0.000186526 0.000189336 1.85419e-05 -0.000114784 -0.000146745 -0.000237558 -0.000434499 -0.00039632 0.000108939 -3.56551e-05 
-0.00411166 -0.00176773 0.00330935 0.00233793 0.00690267 0.00295052 0.0018947 -0.000838296 -0.00454982 0.00113 
-0.00397854 -0.0016989 0.00227238 0.00150911 0.00284952 0.00684385 0.00715569 0.0065835 0.00874581 0.00918575 
0.00466583 0.00553101 0.00250444 -0.00142474 0.00079373 -0.00403478 -0.00387649 -0.0051836 -0.00988199 -0.00374385 
-0.000733785 0.00516307 0.00992915 -4.14515e-05 -0.00161019 -0.00472845 -0.00243748 0.00512566 -0.00197108 0.00267663 
-0.00235191 -0.00101951 0.00236896 -0.00204594 0.00338233 -0.00515617 0.00449096 -0.00184698 -0.000621184 0.00179959 
-0.00179814 0.00183195 -0.00213419 0.00415215 -0.00569122 0.00763358 -0.00685298 0.00592464 -0.00373008 0.00251307 
-0.00239013 0.00264911 -0.00384405 0.00462457 -0.00461127 0.00530195 -0.00361729 0.00353084 -0.0028752 0.00204323 
-0.000703288 -0.000441859 -0.00466099 0.0117347 -0.0140156 0.00714019 0.00422662 -0.0116132 0.0106423 -0.00545007 
0.00104216 0.00139219 -0.000787243 0.000276732 -0.000370778 -0.000210645 -7.59492e-05 0.000249364 0.000219363 3.82863e-05 
-0.000129545 -0.000127092 4.24153e-05 0.000125815 -1.87144e-05 -0.000300327 -0.000492554 -0.000384784 0.00027494 0.000877161 
0.0011428 0.00592797 0.00108672 0.00153003 -0.00195275 -0.00455241 -0.00309657 -0.00858021 -0.00130064 0.000871924 
-0.00218511 0.00261048 0.00159834 -0.000327275 -0.00221424 -0.000153499 -0.00461591 -0.0045952 -0.00363722 -0.00245236 
-0.00302529 0.00314966 0.00133638 0.00554335 0.00558569 0.00401327 0.00712956 0.00707531 0.00585009 0.00779259 
-0.00383217 -0.00648989 -0.00855642 -0.00640473 0.00709909 0.00362727 0.00305749 -0.00132304 -0.00523201 0.00393775 
-0.00320404 0.00387155 -0.0010948 -0.00180111 0.00190032 -0.00242681 0.00494673 -0.00648796 0.00543653 -0.00309151 
0.00118414 -0.000165046 -0.000369522 0.000171806 -0.000816139 0.00144329 -0.00381101 0.00511296 -0.00647436 0.00591438 
-0.00466111 0.00327775 -0.00167825 0.000972542 -0.00103964 0.000207261 -0.00101211 0.00115668 -0.00220353 0.000777952 
0.000181945 0.00524888 -0.0115688 0.0114581 -0.000305564 -0.0136467 0.0184692 -0.0126555 0.00321875 0.00315514 
-0.00423479 0.00221689 -0.000933386 4.54596e-05 0.000320673 0.000126852 0.000105454 -0.000199681 -0.000158349 -5.67862e-05 
0.000121124 0.000138915 1.4266e-05 -8.51974e-05 -9.8289e-05 -0.000143171 -0.000318885 -0.000429137 -2.85835e-05 0.00161968 
0.00554772 -0.00080442 -0.00582765 -0.00318906 -0.00720069 0.00181446 0.000987015 3.08675e-05 0.0101412 0.00347361 
0.00276433 0.00391918 0.000319785 -0.00155045 -0.00150193 -0.000265532 -0.00261215 -0.00233428 -0.00206333 -0.00486073 
-0.0060352 -0.00695134 -0.0109025 -0.00712296 -0.0093943 -0.00747217 -0.00435418 -0.00812422 -0.00538332 -0.00142883 
0.000453826 0.0127433 0.00938913 0.00413565 -0.00218387 -0.0118751 -0.000320473 0.000527356 0.00336787 0.00289457 
-0.00489726 0.00389807 -0.00508249 0.00378961 0.000145856 -0.00157197 0.00108006 -0.00282158 0.00601647 -0.00745373 
0.0064106 -0.00487102 0.00372116 -0.0028502 0.00255874 -0.00227241 0.00292055 -0.00239598 0.00196787 -0.000405529 