# vtk DataFile Version 2.0
Titre
ASCII
DATASET STRUCTURED_POINTS
DIMENSIONS 100 100 1
ORIGIN 0.0 0.0 0.0
SPACING 0.1 0.1 0.0
POINT_DATA 10000 
SCALARS rho float
LOOKUP_TABLE default
-0.000445918 -0.00058775 -0.000887025 -0.00112318 -0.00251504 -0.00236567 0.000208612 0.00109654 0.00205048 0.00116228 
0.000391135 -0.00161873 -0.00276726 -0.00114665 0.00223738 0.00247419 0.000329423 -0.00141065 -0.000366836 -0.000141986 
0.000451685 0.000841665 0.000144461 -0.00151731 -2.62098e-05 0.0012691 -0.000121708 -0.00129507 0.00055583 0.000477652 
-0.000495392 -0.000329047 0.000430407 -0.00018082 -0.000189345 2.90129e-06 4.40446e-05 -0.00014896 -5.60394e-05 3.40424e-05 
-7.49554e-05 -5.14738e-05 3.88266e-05 -4.99817e-05 -9.45081e-06 2.60583e-05 -3.28616e-05 1.71096e-05 8.29743e-09 -1.04702e-05 
1.22683e-05 -9.8281e-06 3.64849e-06 -7.53906e-07 -2.88463e-06 1.83648e-06 -3.92414e-06 -4.59827e-07 -3.78664e-06 -3.05712e-06 
-3.65394e-06 -3.50264e-06 -2.28472e-06 -1.21983e-06 1.02434e-06 3.08877e-06 5.56055e-06 8.06669e-06 1.01165e-05 1.2818e-05 
1.46489e-05 1.85729e-05 2.2425e-05 3.12742e-05 4.31603e-05 6.4992e-05 9.48373e-05 0.000138636 0.000187317 0.000235825 
0.00024482 0.000183785 -4.35159e-05 -0.000466254 -0.00118889 -0.00208345 -0.00307481 -0.00371656 -0.0037609 -0.00290366 
-0.00149194 -0.000230282 -0.00022246 -0.00147856 -0.00340642 -0.00322243 -0.000791686 0.00257121 0.00289278 -9.4605e-05 
0.00127755 0.00146744 0.000777261 -0.00165338 -0.00186133 -0.000890664 0.000417221 -0.00176396 -0.000145024 -0.000214122 
6.07624e-05 -0.00185531 -0.000787149 0.00380487 0.00231982 -0.00094358 -0.00326781 0.000632416 0.00127174 -3.66647e-05 
0.000531786 -0.000201407 -0.00148634 -0.000839516 0.00279237 -0.000771682 -0.00209904 0.000494278 0.00180733 -0.00162324 
-0.000485861 0.000951548 -0.000130111 -0.000631533 0.000296405 0.000141853 -0.000246295 -1.89443e-05 0.000121452 -3.76893e-05 
-0.00011303 0.000128183 -3.81594e-05 -6.32065e-05 9.37347e-05 -5.7028e-05 -1.06821e-06 3.96719e-05 -4.59362e-05 2.95791e-05 
-8.33108e-06 -8.59812e-06 1.34767e-05 -1.48596e-05 7.54766e-06 -5.81608e-06 -5.27774e-07 1.00121e-06 -8.50612e-07 5.08683e-06 
4.11291e-06 9.30976e-06 1.01191e-05 1.32133e-05 1.38484e-05 1.43892e-05 1.3203e-05 1.11109e-05 7.57261e-06 2.9923e-06 
-3.21114e-06 -1.11517e-05 -2.23876e-05 -3.8172e-05 -6.19118e-05 -9.59681e-05 -0.000144759 -0.000208264 -0.000285368 -0.000364991 
-0.000429555 -0.000458349 -0.000429535 -0.000369137 -0.000321739 -0.000453034 -0.000880903 -0.00175606 -0.00290607 -0.00393046 
-0.00417419 -0.00313362 -0.00125022 0.000271318 -9.18755e-05 -0.00240433 -0.00383564 -0.00245768 0.00111491 0.00231024 
-0.00218411 -0.00132928 -0.00696889 -0.0049552 -0.00417718 0.000142504 -0.000661047 0.00220075 0.00482375 0.00255186 
-0.00111227 -0.00489633 0.000700214 0.00127243 -0.000510757 -0.00119977 0.00163942 0.00242579 -0.00269312 -0.000800865 
0.000662458 0.000477539 -0.00158717 0.00195374 -0.000408438 -0.00218635 0.000698222 0.00237181 -0.00230872 -0.000723573 
0.0017927 -0.000177791 -0.00136762 0.000962108 0.000136512 -0.000492484 8.1211e-05 0.000241046 -0.000145088 -8.8664e-05 
0.000131804 8.70961e-06 -0.000137358 0.000131338 -2.56725e-05 -7.59975e-05 0.000107659 -7.3376e-05 1.40629e-05 3.05056e-05 
-4.71351e-05 3.91197e-05 -2.11492e-05 4.86995e-06 8.31166e-06 -8.03024e-06 1.46416e-05 -1.95524e-06 1.18315e-05 5.53655e-06 
8.58513e-06 6.88927e-06 4.09575e-06 1.92502e-06 -3.07473e-06 -6.46177e-06 -1.11596e-05 -1.39606e-05 -1.60699e-05 -1.55852e-05 
-1.21223e-05 -3.91554e-06 1.16281e-05 3.76204e-05 7.97808e-05 0.000142296 0.000231467 0.000344957 0.000476565 0.000597547 
0.000666838 0.000615214 0.000373734 -0.000112472 -0.000841193 -0.00170973 -0.00254002 -0.00308575 -0.00321 -0.00294993 
-0.00255201 -0.00241272 -0.00252093 -0.00280238 -0.00256086 -0.00179769 -0.000729082 0.000480842 0.000889473 7.97757e-05 
0.000623166 -0.00202193 -0.00392177 -0.00172801 -0.000784527 -0.00290173 -0.00292437 0.00136503 0.000330752 -0.00116963 
-0.00452882 0.000870476 0.00401049 0.000812273 -0.00043486 -0.000336071 0.00116566 -0.00312369 -0.00137444 0.00328074 
0.00147591 -0.00217924 -0.00136995 0.00185764 -0.00137205 0.000874683 0.000886121 -0.00149717 -0.00115416 0.0029373 
-0.000966641 -0.00173473 0.00153812 0.000495393 -0.00140669 0.000573447 0.000438084 -0.000538363 7.61287e-05 0.000189186 
-7.04484e-05 -0.000123492 0.00013154 1.57077e-05 -0.000142743 0.00014463 -4.92945e-05 -5.47536e-05 0.000104159 -9.044e-05 
4.41613e-05 4.59722e-06 -3.09136e-05 4.08501e-05 -3.01925e-05 2.07401e-05 -6.77777e-06 -1.53433e-06 1.23583e-06 -1.24473e-05 
-5.16579e-06 -1.84723e-05 -1.50362e-05 -2.24668e-05 -2.08172e-05 -2.2487e-05 -1.98606e-05 -1.78849e-05 -1.49486e-05 -1.39404e-05 
-1.64006e-05 -2.59994e-05 -4.72729e-05 -8.62138e-05 -0.000150393 -0.000246387 -0.000379587 -0.000546003 -0.00073241 -0.000903696 
-0.00101343 -0.00100095 -0.000832337 -0.000521354 -0.000182872 -2.32445e-05 -0.000283249 -0.00109157 -0.00228005 -0.00331543 
-0.00351852 -0.00248483 -0.000799397 0.000376367 -0.000308859 -0.00221323 -0.0034552 -0.00219017 0.000728033 0.00185868 
-0.00215307 -0.00466265 -0.00293724 -0.000864541 -0.00287936 -0.00286965 0.00378198 0.00541866 0.00342309 -0.00106619 
-0.00273839 0.00104686 -0.00245663 -0.00115437 5.89584e-05 0.00188194 0.000436564 -0.00191831 0.00307533 0.000179775 
-0.00206356 -0.00264893 0.00374301 0.000460915 -0.00112145 -0.000516836 -7.03625e-05 -0.00022052 0.00211772 -0.00125275 
-0.00191662 0.00229245 0.000660938 -0.00252058 0.00117526 0.000972779 -0.00134861 0.000241778 0.000630051 -0.000529252 
1.29705e-05 0.000217969 -7.13369e-05 -0.000131074 0.000147041 -3.55586e-06 -0.0001377 0.000168818 -9.56942e-05 -8.94928e-06 
8.19919e-05 -9.98231e-05 7.49007e-05 -3.65491e-05 -2.71859e-06 1.7385e-05 -3.37547e-05 1.85492e-05 -2.70278e-05 3.18982e-06 
-1.34267e-05 -3.20893e-06 -1.53712e-06 2.21254e-06 1.00295e-05 1.33957e-05 2.10348e-05 2.46829e-05 3.12555e-05 3.74375e-05 
4.90917e-05 6.82472e-05 0.000102276 0.000157956 0.000244467 0.00036875 0.000533834 0.000731133 0.000936566 0.00110226 
0.00116311 0.00104345 0.000693623 0.000116827 -0.000590201 -0.0012562 -0.00169182 -0.00181034 -0.00172124 -0.00170018 
-0.00197056 -0.00245495 -0.00262953 -0.00212168 -0.000981773 -0.000201348 -2.59785e-05 6.41481e-05 0.000461575 -0.000302461 
-0.00294909 -0.00124122 2.9743e-05 -0.00343047 -0.0062848 -0.00278195 0.000926439 -0.000783784 -0.00151198 -0.00353381 
0.00138743 0.00168192 0.00180806 0.0026384 -5.13721e-06 5.6618e-06 -0.00271975 -1.8519e-05 0.00103013 -0.000596005 
2.36469e-05 0.00157372 0.00133908 -0.00362649 0.000111109 0.00156396 0.000824566 -0.000843166 -0.000541969 -0.00105374 
0.00248533 -1.99667e-06 -0.00275137 0.00143934 0.00180825 -0.00252848 0.000416764 0.00145398 -0.00127672 1.45439e-05 
0.000696719 -0.000456424 -6.68412e-05 0.000251496 -7.16695e-05 -0.000152176 0.000188751 -5.26057e-05 -0.000110447 0.000183769 
-0.000151003 5.85223e-05 2.77145e-05 -8.00083e-05 8.65637e-05 -6.84529e-05 4.12865e-05 -9.94963e-06 3.92919e-06 2.37752e-05 
1.54567e-06 3.39683e-05 1.38765e-05 3.4692e-05 2.27048e-05 3.02936e-05 2.17855e-05 2.02767e-05 1.08951e-05 1.85866e-06 
-1.45127e-05 -3.83044e-05 -7.74299e-05 -0.000138002 -0.000229506 -0.000358265 -0.000525767 -0.000720486 -0.000913237 -0.00105259 
-0.00107299 -0.000912248 -0.000550042 -4.30534e-05 0.000449532 0.000702139 0.000517278 -0.000126471 -0.000975813 -0.00155629 
-0.00144355 -0.0006019 0.000414431 0.000841245 0.000164553 -0.00110693 -0.00191669 -0.000908568 0.0016989 0.00252507 
0.00127785 0.00196022 0.00183254 -0.00435254 -0.000143705 0.00235219 0.00386323 0.00393592 0.00076191 4.04845e-05 
-0.00156247 -0.00284 -0.000904461 -0.0019431 0.000268924 0.00232987 9.19433e-05 0.00129643 -0.000449775 0.00111049 
-0.00169248 0.000180634 -0.00163061 0.00121743 0.00234787 -0.000709838 -0.00262569 0.000577159 0.00154195 0.000350237 
-0.000820891 -0.00174212 0.00187149 0.00148587 -0.00302901 0.000464153 0.00243274 -0.00214806 -0.000241155 0.00168338 
-0.00113062 -0.000139753 0.000708756 -0.000402854 -0.000103251 0.000265602 -7.82736e-05 -0.000165019 0.000238686 -0.000129599 
-4.35385e-05 0.000164856 -0.000186909 0.000137666 -5.28497e-05 -9.76179e-06 5.90963e-05 -6.09424e-05 6.46488e-05 -4.0895e-05 
2.82868e-05 -2.03548e-05 -5.77266e-06 -2.1912e-05 -3.14972e-05 -3.81629e-05 -5.24007e-05 -5.80173e-05 -6.95838e-05 -7.40479e-05 
-7.86583e-05 -7.40487e-05 -5.85659e-05 -2.19657e-05 4.40341e-05 0.000148453 0.000293349 0.000467968 0.000641713 0.000761387 
0.000759435 0.000575104 0.000190142 -0.000339368 -0.000873896 -0.00123455 -0.00130067 -0.00110595 -0.000874432 -0.000863916 
-0.00114683 -0.00140967 -0.00115393 -0.000206837 0.000906202 0.00121474 0.000559314 3.00583e-06 0.000945714 0.00262658 
0.000896479 0.000733917 -0.00269086 -0.00592334 -0.000951014 -0.00483993 0.0020313 -0.00100088 -0.00036134 -0.000409797 
0.000698084 0.00486033 0.0028573 -0.000163802 0.00246538 -0.00210439 -0.00311365 -0.00110472 0.002573 -9.94493e-05 
-0.0013931 0.00176618 0.000707947 0.000247907 -0.00222501 -0.00125564 0.0022286 0.00229152 -0.00250249 -0.00152881 
0.00129285 0.00153408 -0.000422338 -0.00227221 0.000959083 0.0025427 -0.00278834 -0.00044191 0.00276202 -0.00179243 
-0.000614978 0.00172458 -0.00100738 -0.000201159 0.000689084 -0.000379306 -0.000109349 0.00028547 -0.000118334 -0.00014288 
0.000277196 -0.000228147 7.52193e-05 7.78918e-05 -0.000165722 0.000174429 -0.000141135 7.24907e-05 -3.67782e-05 -2.23371e-05 
1.18517e-05 -5.05923e-05 1.49296e-05 -3.72054e-05 1.61974e-05 -2.81343e-06 3.98201e-05 4.99744e-05 9.24472e-05 0.000123362 
0.000169186 0.000207006 0.000241246 0.000252855 0.000232474 0.000163192 3.91749e-05 -0.000133525 -0.000324725 -0.000479869 
-0.00052818 -0.000408002 -0.00010366 0.000321777 0.0007211 0.000915148 0.000779569 0.000358512 -0.000134232 -0.000391253 
-0.000230074 0.000294638 0.000917121 0.00136541 0.00145171 0.00109321 0.000394439 0.000199515 0.0015157 0.00305361 
0.00272012 0.00165269 -0.000856102 3.75222e-05 -0.00275887 0.000603488 0.00546367 -0.000650722 -7.62025e-05 -0.00412197 
-0.000381676 -0.00188854 -0.0062108 -0.00010499 0.0037814 -0.000414522 0.00134439 0.00271272 0.00123613 -0.00467154 
0.00119936 0.000993055 -0.0014871 -0.000978579 0.0016367 0.00183533 -0.000358733 -0.00319589 -0.00038472 0.00404859 
-0.000330511 -0.00287562 -1.46424e-05 0.00221137 0.000476303 -0.00253457 -6.09495e-07 0.00313737 -0.0022766 -0.00118542 
0.00293129 -0.00155302 -0.000778814 0.00170028 -0.000965539 -0.000167797 0.000641141 -0.000377109 -9.5412e-05 0.000316967 
-0.000204537 -6.05246e-05 0.000263078 -0.000312902 0.000223785 -8.67784e-05 -4.35411e-05 0.000116389 -0.000140924 0.00013287 
-9.17848e-05 7.9066e-05 -2.38853e-05 3.75925e-05 5.762e-06 5.49336e-06 -1.57084e-05 -5.21077e-05 -9.65383e-05 -0.000163522 
-0.000238511 -0.000324409 -0.000404308 -0.000463506 -0.000479122 -0.000428699 -0.000298077 -9.01203e-05 0.000163046 0.000399098 
0.000534692 0.000494282 0.000249281 -0.000146122 -0.000559939 -0.000816417 -0.00081599 -0.000570808 -0.000266242 -7.21224e-05 
-5.19267e-05 -1.1911e-05 0.000292219 0.000938214 0.00164406 0.00195247 0.00162445 0.0010231 0.00137892 0.00342275 
0.0051786 0.00113866 0.00212569 -0.00430882 -0.00403684 0.00531376 0.00111483 0.000634695 -0.000178764 0.00306189 
0.00638515 0.000225306 0.000274293 0.00642212 -0.00228231 -0.00557355 -0.0025131 0.00206609 -0.0021289 0.00098992 
0.00354542 -0.00161474 -0.00111653 0.00235388 -0.000536393 -0.00243549 -0.000504074 0.0022738 0.00232131 -0.00226599 
-0.00370051 0.00348819 0.00237458 -0.00296968 -0.00140877 0.00207374 0.00146362 -0.00244085 -0.000849504 0.00337064 
-0.0017557 -0.00165206 0.00296655 -0.00143721 -0.000773912 0.00163536 -0.000991493 -6.01842e-05 0.000569755 -0.000395565 
-5.22998e-05 0.000345421 -0.00033249 0.000113225 0.000139448 -0.000290011 0.000326558 -0.000250943 0.000163995 -4.61476e-05 
-9.08457e-07 6.67659e-05 -5.22793e-05 8.27868e-05 -3.30227e-05 7.87104e-05 2.45836e-05 0.000117642 0.000134297 0.000238241 
0.00031658 0.000436775 0.000534805 0.000618654 0.000639586 0.000579073 0.000410816 0.000141294 -0.000193152 -0.00051648 
-0.000729358 -0.000741397 -0.000519258 -0.000114408 0.000311676 0.000587394 0.000554204 0.000253606 -0.000169809 -0.000435184 
-0.000363835 0.000115388 0.000911133 0.0018157 0.00245972 0.00240712 0.00161991 0.000938294 0.00147267 0.00331114 
0.00315656 0.000579129 -0.00181794 -0.0098478 0.00209791 0.00128447 -0.00334169 -0.00249772 -0.00377674 0.000976804 
-0.00387916 -0.0079975 0.00168346 0.00303746 -0.00200442 0.00302834 0.00593027 0.00175185 -0.00444754 0.00125625 
-0.00215353 -0.00172059 0.00232732 0.000471915 -0.00267314 0.0025054 0.00194884 -0.00190204 -0.00254039 2.80372e-05 
0.00407005 0.000679069 -0.00554988 0.00100452 0.00456656 -0.0022068 -0.00245046 0.00158466 0.00209225 -0.00206003 
-0.00149859 0.00341793 -0.00141798 -0.00182334 0.00293515 -0.00148211 -0.000588009 0.00150017 -0.00104241 9.60346e-05 
0.000479511 -0.000438672 4.76754e-05 0.000322303 -0.000455995 0.000357607 -0.000140463 -7.90815e-05 0.000211902 -0.000283849 
0.000243795 -0.000237059 0.000120287 -0.000148071 7.90784e-07 -0.00011919 -9.56601e-05 -0.000170719 -0.00021813 -0.00031173 
-0.000408812 -0.000528525 -0.000633389 -0.000713287 -0.000720707 -0.000632549 -0.000419465 -9.32542e-05 0.000303234 0.000679084 
0.000922141 0.000935676 0.000677083 0.000232898 -0.0002596 -0.00055246 -0.000555408 -0.000227797 0.000211038 0.000569023 
0.000674943 0.000597286 0.000545033 0.000799313 0.00147158 0.00226 0.00242691 0.00165486 0.00121316 0.00236283 
0.00308116 0.0030613 -0.00722665 0.000349454 0.00539372 -0.000363814 0.000534309 0.00171551 0.00366778 0.00554558 
-0.00232533 0.000818904 0.00621218 -0.00402027 -0.00454331 -0.00272158 -0.00173427 -0.0050471 0.0030317 0.00451427 
-0.000740877 0.000965357 0.000916243 -0.00327658 0.00122017 0.00153574 -0.00367616 5.67985e-05 0.00399405 0.000158205 
-0.00230304 -0.00316743 0.00326797 0.00425389 -0.00541951 -0.00204708 0.00561785 -0.000961526 -0.00314855 0.00112589 
0.00232362 -0.00162045 -0.00188135 0.00338234 -0.00131513 -0.00173837 0.00286626 -0.00167407 -0.000226012 0.00125776 
-0.00106603 0.000268224 0.00037402 -0.00051798 0.000246112 0.000143761 -0.000441068 0.000524999 -0.000464459 0.000297059 
-0.000138458 7.67471e-06 8.68934e-05 -8.88886e-05 0.000160783 -3.69822e-05 0.000193733 9.23918e-05 0.000277148 0.000285272 
0.000449295 0.00053096 0.000663371 0.000724141 0.00073332 0.000625526 0.00039497 4.46156e-05 -0.000370031 -0.000752466 
-0.000987544 -0.000962426 -0.000680291 -0.000174385 0.000300382 0.000613404 0.000536913 0.000177602 -0.000330616 -0.000655373 
-0.000591665 -4.82591e-05 0.000834092 0.00173214 0.00225385 0.00220278 0.00175151 0.0012632 0.00133741 0.00300831 
0.00776474 -0.00258734 -0.00330545 0.00576082 -0.00265442 -0.000998706 -0.00179486 0.000223417 -0.000144359 -0.000546711 
-0.00608011 0.00420467 0.00135736 -6.18172e-05 0.00555706 0.00542185 0.00197004 -5.36041e-05 0.00202643 -0.00681132 
-0.00322944 0.0024609 8.35545e-05 -0.000599372 0.00340665 -0.00254317 5.99685e-05 0.00361399 -0.00319804 -0.00350651 
0.00364995 0.00226459 -0.000264893 -0.00483701 0.000209151 0.00701278 -0.00383507 -0.00463925 0.00575044 0.000175532 
-0.0034586 0.000806021 0.0022913 -0.0012863 -0.00200236 0.00333115 -0.00146153 -0.00139217 0.00269914 -0.00192585 
0.000269363 0.000886506 -0.00101259 0.000434877 0.000244627 -0.000596066 0.000567511 -0.000258826 -6.03321e-05 0.000360763 
-0.000441501 0.000520412 -0.000386848 0.000381204 -0.000211102 0.000201938 -0.000118073 4.1291e-05 -0.000158592 -0.00015088 
-0.000327313 -0.000404493 -0.000560181 -0.000627148 -0.000665391 -0.000572796 -0.000368671 -3.7064e-05 0.000354383 0.000720382 
0.000917899 0.000897227 0.00055507 9.82601e-05 -0.00042808 -0.000662661 -0.000610801 -0.000195251 0.000308018 0.000685794 
0.000731774 0.000495459 0.000251066 0.000391663 0.0010849 0.00195037 0.00221195 0.00146758 0.000398369 0.00144253 
0.000633377 -0.0070487 0.00184987 -0.00344073 -0.00449287 -8.16602e-05 -0.00182603 -0.00025803 0.000324076 -0.00133473 
-0.00281046 0.00180017 -0.00635362 -0.00178777 -0.00404604 -0.00525036 -0.00470918 0.00359104 0.00178351 0.00122446 
0.00687603 0.000752902 -0.00554845 0.000840694 0.000501911 -0.00300853 0.00301223 -0.0010605 -0.0022876 0.00560601 
-0.000242044 -0.00593149 0.00120592 0.00304125 0.00227931 -0.00438609 -0.00351362 0.00829128 -0.00163493 -0.00649508 
0.0055873 0.00079545 -0.00344713 0.00068668 0.00207583 -0.00108932 -0.0019152 0.00329059 -0.00183839 -0.000758872 
0.00231794 -0.00208586 0.000790815 0.000419361 -0.000884516 0.000613519 -1.9761e-05 -0.00053259 0.000771033 -0.000802544 
0.00054262 -0.000396802 3.1781e-05 -6.59981e-05 -0.000259248 7.65007e-06 -0.000314174 -2.16455e-05 -0.000218631 1.72804e-05 
-6.8079e-07 0.000200699 0.000300294 0.000446189 0.000509079 0.00048341 0.00033308 5.36828e-05 -0.000305553 -0.000628711 
-0.000863207 -0.00078036 -0.000545355 -5.70824e-06 0.000409431 0.000721231 0.000617656 0.000259487 -0.000239316 -0.000562802 
-0.000521987 -7.91025e-05 0.000582328 0.00116659 0.00145365 0.00143157 0.0012513 0.00111017 0.000894829 -0.000374961 
-0.00335026 0.0047732 -0.0008155 -0.00256372 0.00425723 0.0024349 -0.000265918 0.00154854 0.00449245 0.00029917 
0.00298558 0.00132765 0.00399308 0.00672518 0.0024329 0.00167639 0.00341554 0.000679695 -0.00886375 -0.00276225 
-0.00104524 -0.00437147 0.00264373 0.0070928 -0.00341863 -0.000398546 0.00292625 -0.00340381 0.00123863 0.000634342 
-0.00547961 0.00519438 0.00396826 -0.00597722 -0.00149213 0.00204823 0.00426012 -0.00246454 -0.00667657 0.0083917 
0.00036997 -0.00765123 0.00556564 0.000778289 -0.00318718 0.000739663 0.00174679 -0.00101902 -0.00164639 0.00320862 
-0.00235653 0.000148522 0.00161082 -0.00196973 0.00117092 -3.92992e-05 -0.000721457 0.000886347 -0.000549119 7.37152e-05 
0.000450644 -0.000643777 0.000911564 -0.000655861 0.00087175 -0.000322843 0.000717259 -5.96671e-06 0.000571742 0.000129993 
0.000357257 2.75182e-05 1.6492e-05 -0.000238722 -0.000306886 -0.000381726 -0.000278185 -5.35565e-05 0.000249662 0.000638546 
0.00078295 0.000887409 0.000518225 0.000158561 -0.00039957 -0.000647451 -0.00065951 -0.000320476 0.000126897 0.000469635 
0.000524852 0.000319919 9.19908e-05 0.000157688 0.000651324 0.00127955 0.00137513 0.000645792 0.000392338 0.00158004 
0.00720752 0.00571177 -0.00786038 0.0055869 0.00385902 -0.00290181 -0.00466044 0.00254595 0.000489643 -0.00330891 
-0.00320494 -0.00430231 0.00165471 -0.00528983 -0.00447027 -0.00143459 0.00478408 -0.000553035 0.00393866 0.0104622 
0.000959001 -0.00283138 0.00157257 -0.00494524 -0.00569098 0.00642636 -0.000576271 -0.00296077 0.00442949 -0.00143135 
-2.8148e-05 0.00312802 -0.00781525 0.00193348 0.00744061 -0.00429166 -0.00295842 3.75738e-05 0.00511331 1.58637e-05 
-0.00891673 0.00810629 0.00157306 -0.00819163 0.00587981 9.4728e-05 -0.00261001 0.000793123 0.00142435 -0.00109391 
-0.00115874 0.00293776 -0.00280832 0.00118262 0.00059527 -0.00148955 0.00130025 -0.000465907 -0.000457203 0.00103669 
-0.00126509 0.0010497 -0.000876692 0.000346977 -0.000389755 -0.000216775 -0.000270588 -0.000477498 -0.000372871 -0.000506456 
-0.00040076 -0.000320063 -0.000181873 3.31436e-05 0.000164631 0.0002868 0.000212463 7.39313e-05 -0.000341347 -0.000566518 
-0.00100684 -0.000879359 -0.000810923 -0.00022981 0.00020267 0.000614931 0.000648591 0.000405101 -4.65452e-06 -0.00032918 
-0.000387857 -0.000149632 0.000254424 0.000615784 0.000791114 0.0008044 0.000729501 0.00029716 -0.000619236 0.00107447 
0.00468828 -0.0120409 -0.00611535 0.00624775 -0.0041174 -0.0101445 -0.0018986 0.00465872 -0.0027531 -0.00111 
-0.00279151 0.0044219 0.00279388 -0.00320733 0.000969969 0.00118477 -0.00259725 -0.0100617 -0.00162775 -0.00442971 
-0.00780251 0.00411955 0.00697335 -0.00089275 0.0045366 0.00237354 -0.008373 0.00275483 0.00228729 -0.0057597 
0.00304234 0.000446134 -0.00100102 0.00631628 -0.00774103 -0.00277127 0.00907805 -0.00215377 -0.00300359 -0.00194705 
0.00495791 0.00228562 -0.0103766 0.00814731 0.00162105 -0.00808255 0.0064494 -0.00119064 -0.00157812 0.000589921 
0.00129071 -0.00139415 -0.000343825 0.00223477 -0.00283384 0.00197038 -0.000439939 -0.000818928 0.00132451 -0.0010707 
0.000437629 0.00034581 -0.000821933 0.00129979 -0.0011494 0.00144869 -0.000782609 0.00126066 -0.000248988 0.000996698 
0.000100798 0.000631768 9.43559e-05 0.000143723 -0.000161857 -0.000195008 -0.000252413 7.99111e-05 0.000212859 0.000887275 
0.000919032 0.00127288 0.000859725 0.000520791 -0.000118035 -0.000515128 -0.000660686 -0.000470082 -0.000100871 0.000235077 
0.000372463 0.000283103 9.80296e-05 3.8072e-05 0.000251663 0.000609548 0.000723254 0.000306993 -0.000900035 -0.00259832 
-0.00789647 -0.00724413 0.00804438 0.00785268 -0.00389622 -0.00378468 0.011873 0.00375301 0.000351542 0.00136289 
0.00113347 0.00641813 -0.00240652 0.000305272 0.00462564 0.00486751 0.00134366 0.00624197 0.0106986 1.5169e-05 
-0.00015539 0.00257836 -0.0092176 -0.00767287 0.0038025 -0.00242453 0.000689231 0.00827732 -0.00536562 -0.000632688 
0.00605937 -0.00627813 0.000145966 0.00109089 -0.00284813 0.00904277 -0.00529442 -0.00698223 0.00901765 -0.000567255 
-0.00210995 -0.00339894 0.0043948 0.00379454 -0.0112569 0.00889837 0.000291576 -0.00701282 0.00679773 -0.00272204 
-0.000135749 -1.60695e-05 0.00147238 -0.00196452 0.000852872 0.00092039 -0.0020961 0.00208267 -0.00111688 -0.000196847 
0.00125393 -0.00187148 0.0019013 -0.00178696 0.00124501 -0.0011652 0.000489776 -0.000835631 5.46139e-05 -0.00075361 
-9.70134e-05 -0.000578552 6.20256e-06 -0.000171606 0.000226564 0.000250688 0.000100018 0.000170554 -0.00062924 -0.000608712 
-0.00138985 -0.00118429 -0.0011852 -0.000581045 -3.11823e-05 0.000465938 0.000650704 0.000516223 0.000185338 -0.000149421 
-0.000317176 -0.000246218 1.61742e-05 0.000315136 0.000469902 0.000407924 0.000185916 -8.28519e-05 -0.000247717 -0.00179337 
-0.00205098 0.0113755 0.00931812 0.00285845 -0.0076463 0.00211368 0.00756908 -0.00783775 -0.000432975 -0.00340592 
0.000592533 -0.00221409 -0.00537095 -0.000832637 -0.00170533 -0.00625981 -0.00736287 -0.00125783 -0.00510319 -0.0063664 
0.00612487 0.00605708 0.00114945 0.01003 0.00374242 -0.00887584 0.00138919 -0.0018638 -0.0064691 0.00752722 
-0.00141615 -0.00442227 0.00904763 -0.00367551 -0.00208078 0.00141276 -0.00576781 0.0102907 -0.00176387 -0.00965368 
0.00819351 -1.66281e-05 -0.000785369 -0.00436753 0.00409846 0.00415401 -0.0115048 0.0102755 -0.00244767 -0.00449415 
0.00606153 -0.00365824 0.00115407 -0.000695474 0.00169185 -0.00246252 0.00203322 -0.000640688 -0.000845942 0.0017042 
-0.00167858 0.00102923 -3.56804e-05 -0.000768884 0.00151685 -0.00162532 0.00193646 -0.00137867 0.00156978 -0.000684509 
0.000926136 -0.000191469 0.000278841 -0.000122373 -0.000324881 -5.76208e-05 -0.000584329 0.000432519 3.58176e-05 0.00120807 
0.00105913 0.00150924 0.00113232 0.000707953 8.32906e-05 -0.000410643 -0.000624997 -0.000536755 -0.000239732 9.41264e-05 
0.000308801 0.000312206 0.000130431 -5.7158e-05 -1.89056e-05 0.000245938 0.000320688 -0.000268831 -0.000921791 0.000473417 
0.00699626 0.00318506 -0.00595603 -0.00750667 -0.00918733 0.0029819 -0.0061431 -0.00759076 0.00182652 -0.00262092 
0.000422738 -0.00314828 0.00234312 0.00239826 0.00212389 0.000189451 0.00583586 0.00476627 -0.00290624 -0.000916392 
1.72327e-06 -0.0124864 -0.00789385 0.00064184 -0.00569696 0.00238986 0.0122254 -0.0034778 0.00123034 0.00413143 
-0.00902831 0.00337103 0.00179817 -0.00871007 0.00893351 0.00020919 -0.00285402 0.00252147 -0.00885247 0.0099672 
0.00142028 -0.0107527 0.00747874 -0.000489714 0.000651573 -0.00512919 0.00456535 0.00299899 -0.0105855 0.0114734 
-0.00599649 -0.000448396 0.00349604 -0.00294505 0.00126277 -0.000555937 0.00112841 -0.00201016 0.00221692 -0.00143723 
1.96102e-05 0.00145524 -0.00259026 0.00313989 -0.00334312 0.00305761 -0.00292812 0.0023373 -0.00228925 0.00159577 
-0.00154225 0.00096807 -0.000720079 0.000798515 -0.000300419 0.00100834 -0.000428053 0.000612982 -0.000902111 -0.000568535 
-0.00140713 -0.00129291 -0.00117689 -0.000694371 -0.00011631 0.00035072 0.000582355 0.00052995 0.000274645 -4.94569e-05 
-0.000288462 -0.00031081 -9.12341e-05 0.00020962 0.000333706 0.000200188 -1.86842e-05 -0.000362212 -0.00133735 -0.00134719 
-0.000991979 -0.0115807 -0.00409771 0.000154954 0.00631375 0.00439089 -0.00202995 0.00944735 0.00758486 0.00348731 
0.00183467 0.00445673 0.00505547 -0.000446044 -0.000193555 -0.000313488 0.00350093 -0.00209841 0.000831466 0.00932084 
0.00694291 0.00300079 0.0129943 0.00290697 -0.00760267 0.00033003 -0.00609787 -0.0108253 0.00821303 -0.000386263 
-0.00223786 0.00972801 -0.00583903 2.6946e-05 0.00536755 -0.0117424 0.00587025 0.00306206 -0.00282151 0.00456171 
-0.0111822 0.00885914 0.00325686 -0.0105991 0.00719735 -0.0016725 0.00203436 -0.00586641 0.00594212 5.86195e-05 
-0.00756489 0.0108382 -0.00853737 0.00376401 -0.000253771 -0.000648441 -2.50145e-05 0.000614358 -0.000331023 -0.000612158 
0.00147739 -0.0017888 0.00138944 -0.000562793 -0.000362579 0.00111519 -0.00142141 0.00149043 -0.00104736 0.000687183 
-0.000123368 -0.000167418 -1.62849e-05 -0.000101742 -0.000858707 0.00040309 -0.00107561 0.000662784 -5.78392e-05 0.00101942 
0.00104216 0.00124148 0.00106136 0.000636364 0.000145289 -0.000288536 -0.000516505 -0.00050617 -0.000295699 1.70583e-05 
0.000280963 0.000335315 0.000136011 -0.000127797 -0.000158325 7.73699e-05 0.000192852 -0.000178423 -0.00110941 -0.00313067 
-0.00795675 -0.000378132 0.0111791 0.0113517 0.00695844 -0.00778466 0.00301716 0.00584244 -0.00457776 -0.00596827 
-0.00494269 0.0019098 -0.0054549 -0.00499124 -0.00150556 -0.000521358 -0.00254504 -0.00755241 -0.0024831 -0.00483174 
-0.0125431 -0.00682861 0.00138413 -0.00619361 0.00572581 0.0139122 0.000139749 0.00448586 0.00540955 -0.0128563 
0.00118706 0.00134426 -0.00878791 0.00949548 -0.00132384 -0.00225456 0.00953277 -0.0120625 0.00198817 0.0040195 
-0.00289802 0.00694087 -0.0124986 0.00799508 0.00324965 -0.00931721 0.00705339 -0.00303549 0.00311591 -0.00632782 
0.00765267 -0.00419974 -0.00203387 0.00673918 -0.00748192 0.00518468 -0.00236942 0.000811154 -0.000579412 0.000803926 
-0.000534312 -0.000416235 0.00195909 -0.00346377 0.0048393 -0.00561342 0.00607765 -0.00589832 0.00549869 -0.00455003 
0.0035421 -0.00192537 0.000819069 0.000882706 -0.000966835 0.00179379 -0.000948359 0.000755408 -0.000678053 -0.000545928 
-0.00094843 -0.00104569 -0.000881561 -0.000577762 -0.000160651 0.000208835 0.000438231 0.000473967 0.00031003 1.04049e-05 
-0.000270121 -0.000334915 -0.000114972 0.000192622 0.000275224 7.81189e-05 -0.000147454 -0.000327953 -0.000622531 -0.00151017 
-0.000100345 0.0116109 0.00738786 0.0014988 -0.0155242 -0.014558 0.00638948 -0.0068209 -0.009912 -0.00555604 
0.00123037 0.00140219 -0.00661142 0.00118501 0.00285216 0.00145134 -5.19961e-06 0.00341231 0.00915048 0.00331893 
0.00270127 0.00840065 -0.00104494 -0.0107663 -0.00178462 -0.0102001 -0.0131004 0.00635468 0.000427609 -8.09093e-05 
0.0143608 -0.00473322 -0.00176021 0.00585117 -0.0126444 0.00473731 0.00139091 -0.00497822 0.0129025 -0.0100146 
-0.000692686 0.00351154 -0.0033708 0.00890389 -0.0129731 0.00799542 0.00130287 -0.00666085 0.00622713 -0.00376716 
0.00331522 -0.00558176 0.00793816 -0.00745663 0.00389997 0.000336129 -0.00275017 0.00268659 -0.00128076 -5.02472e-05 
0.000482188 -0.00028297 -0.000249799 0.000385172 -0.000515357 0.000248225 -0.000655155 0.000845173 -0.00188984 0.00232546 
-0.00357314 0.00382493 -0.00470258 0.00389977 -0.00371665 0.00201922 -0.00141904 0.000502032 0.00015859 0.000468584 
0.000776114 0.000763222 0.0007283 0.000492292 0.000188771 -0.000120349 -0.000356069 -0.000439839 -0.000321528 -3.26926e-05 
0.000262816 0.000338276 0.000118296 -0.000171858 -0.0002014 3.99522e-05 0.000152086 -0.00023533 -0.00095039 -0.00035783 
0.00537549 0.000439242 -0.00519205 -0.00851374 -0.0171231 0.00912753 0.0145357 -0.00362035 0.00490765 0.0105939 
0.0125001 0.00343631 0.00313233 0.00969556 0.00440473 -0.000299384 0.000233274 0.0016934 -0.000832371 -0.00613243 
0.00171773 0.00581188 0.000377302 0.0102677 0.016259 0.00190852 0.00528839 0.00504476 -0.0150502 -0.00295012 
-0.00101289 -0.0113627 0.0106517 0.00241059 -0.00320165 0.0117623 -0.0108034 3.00702e-05 0.00259959 -0.00841971 
0.0142062 -0.00719258 -0.00133035 0.00216703 -0.00380775 0.00979776 -0.0126097 0.00862837 -0.00212814 -0.00240585 
0.00381419 -0.00301438 0.00203079 -0.00265455 0.00463323 -0.00594211 0.00509288 -0.00253092 -8.35273e-05 0.00159092 
-0.00188513 0.00189921 -0.00217999 0.00347768 -0.00511893 0.00750941 -0.00876675 0.00980167 -0.00862943 0.00807591 
-0.00614215 0.00583792 -0.00401414 0.00342172 -0.00144618 0.000819651 0.000148997 -0.000325392 4.84657e-05 -0.000515181 
-0.000443014 -0.000573672 -0.00054225 -0.000418514 -0.00022439 3.20147e-05 0.000275767 0.000408288 0.000331354 5.10682e-05 
-0.000255034 -0.000332473 -0.000101389 0.000196966 0.000233339 9.34903e-06 -0.000153557 -0.000213623 -0.000829047 -0.00166932 
-0.00192098 -0.0101754 0.00154754 -0.00166653 0.00441653 0.0239752 0.00189926 -0.00675281 0.00437059 0.0034131 
-0.00566811 -0.0107738 -0.0028629 -0.00261778 -0.00826823 -0.00625899 -0.000244206 -0.00142367 -0.00416642 -0.00403941 
-1.13185e-05 -0.0087153 -0.0139841 -0.00446814 -0.010713 -0.0106233 0.00796159 0.00471992 0.00244284 0.0180835 
-0.00116408 -0.00289213 0.00542501 -0.0158596 0.000290758 0.0041195 -0.00681422 0.0146522 -0.00568746 -0.00200307 
0.00376191 -0.0115021 0.0133962 -0.00503134 -9.97303e-05 0.000193274 -0.0034489 0.0090464 -0.0107952 0.00847207 
-0.00538566 0.00251138 5.58488e-05 -0.00110559 0.000300129 0.000753183 -0.000607708 -0.000335878 0.000653425 0.000325497 
-0.00219025 0.00378934 -0.00467429 0.00439269 -0.00369292 0.00141788 0.00119387 -0.00526168 0.00669757 -0.00742524 
0.00424926 -0.00263435 -0.000133383 -0.000146324 -0.000392506 -0.000272819 0.000167385 -2.41003e-05 0.000194479 0.0002883 