# vtk DataFile Version 2.0
Titre
ASCII
DATASET STRUCTURED_POINTS
DIMENSIONS 100 100 1
ORIGIN 0.0 0.0 0.0
SPACING 0.1 0.1 0.0
POINT_DATA 10000 
SCALARS rho float
LOOKUP_TABLE default
0.00453955 -0.00385788 -0.00505392 -0.00380981 -0.00115306 0.00446432 0.00372911 0.00397425 -0.00359504 0.00128323 
0.000854998 0.00567508 -0.00226272 -0.00330854 -0.00224355 0.00420259 0.00257651 -0.00127098 -0.00274599 0.000171771 
0.00100956 -0.000183463 -0.000712679 -0.000109881 -9.2612e-05 -0.000127707 7.13895e-05 -7.60078e-05 -0.000221689 6.41474e-05 
8.71109e-05 -0.000136928 -2.8576e-05 8.15583e-05 -4.47443e-05 -3.31477e-05 3.90791e-05 -1.26929e-05 -1.51108e-05 1.56985e-05 
-5.49815e-06 -3.93224e-06 5.50955e-06 -2.98271e-06 5.35987e-08 1.24915e-06 -1.16412e-06 5.70779e-07 -6.48328e-08 -1.62921e-07 
1.85562e-07 -1.24348e-07 5.58657e-08 -1.30445e-08 -6.63601e-09 1.09644e-08 -9.17626e-09 5.82434e-09 -3.50712e-09 9.26757e-10 
-2.03063e-09 -2.52869e-09 -5.37756e-09 -9.97842e-09 -1.78844e-08 -3.19644e-08 -5.42158e-08 -9.29052e-08 -1.50019e-07 -2.48399e-07 
-3.8119e-07 -6.13334e-07 -8.85644e-07 -1.3913e-06 -1.84972e-06 -2.85481e-06 -3.36266e-06 -5.16979e-06 -5.09885e-06 -8.17367e-06 
-6.79147e-06 -1.33171e-05 -1.55632e-05 -3.96479e-05 -8.25618e-05 -0.000190796 -0.000414385 -0.000812908 -0.00152759 -0.00254407 
-0.00394636 -0.00537743 -0.00650664 -0.006472 -0.00526168 -0.00201724 0.000157811 0.00298212 0.00309273 0.00106716 
0.00187599 -0.0028476 0.00686665 0.00874502 0.0135152 0.00342607 0.000562134 -0.0140238 -0.00215864 0.00160019 
0.00926029 -0.00134848 -0.00614578 -0.000531249 0.00676111 0.00407056 -0.00513953 -0.00390162 0.00231025 0.0033868 
-0.0014316 -0.00189839 0.000487724 0.00069582 -0.000396048 -5.00451e-05 6.24352e-05 -0.000263378 0.000113838 0.000214107 
-0.000255319 -5.87871e-05 0.000220442 -8.84284e-05 -9.78821e-05 0.000115253 -1.7477e-05 -5.5349e-05 4.90662e-05 -6.99603e-06 
-2.01903e-05 1.9706e-05 -6.46692e-06 -3.85568e-06 6.38596e-06 -4.02109e-06 9.08975e-07 8.63268e-07 -1.20846e-06 8.30774e-07 
-3.46373e-07 2.83232e-08 1.00821e-07 -1.13467e-07 8.11549e-08 -4.51659e-08 1.96297e-08 -6.28594e-09 -3.06666e-10 9.47851e-10 
-2.7547e-09 -2.51653e-10 -2.67805e-09 -1.55984e-09 -1.62435e-09 9.67462e-10 5.59108e-09 1.47519e-08 2.83042e-08 4.73904e-08 
6.36809e-08 7.06746e-08 2.38477e-08 -1.02762e-07 -4.66268e-07 -1.09709e-06 -2.44095e-06 -4.34448e-06 -7.88274e-06 -1.19553e-05 
-1.86963e-05 -2.4059e-05 -3.08738e-05 -2.92327e-05 -1.93201e-05 1.09522e-05 6.72189e-05 0.000124817 0.00016931 3.29767e-05 
-0.000387699 -0.00141737 -0.00308876 -0.00528863 -0.00723481 -0.00803948 -0.00644886 -0.00421616 -0.000914251 0.000420683 
-0.00180844 -0.00199678 -0.00281837 0.00114042 -0.0093237 -0.00141552 -0.00969262 0.00307626 0.0110172 0.0087154 
0.0015512 -0.0112567 -0.000215625 0.00416086 0.00400412 -0.00590974 -0.00138105 0.00485869 0.00290854 -0.00438123 
-0.00246283 0.00274089 0.00164529 -0.00168348 -0.000644689 0.000759829 1.24885e-06 -0.000148836 0.000175089 -0.000238756 
-3.47947e-05 0.000311741 -0.000169166 -0.000159244 0.000230615 -3.85968e-05 -0.000127049 0.000113911 -7.41388e-06 -5.98239e-05 
5.13309e-05 -1.00258e-05 -1.80043e-05 2.06291e-05 -9.68228e-06 -8.3947e-07 5.2052e-06 -4.59979e-06 2.23141e-06 -2.78776e-07 
-6.30012e-07 7.50931e-07 -5.28765e-07 2.67002e-07 -8.65774e-08 -3.0038e-09 3.26837e-08 -3.25649e-08 2.4809e-08 -1.3117e-08 
1.16412e-08 2.52496e-09 1.4739e-08 2.25815e-08 4.27422e-08 7.44199e-08 1.28886e-07 2.18179e-07 3.63193e-07 5.93752e-07 
9.54197e-07 1.50465e-06 2.32897e-06 3.52532e-06 5.22532e-06 7.53748e-06 1.06312e-05 1.4518e-05 1.94238e-05 2.50276e-05 
3.17188e-05 3.81159e-05 4.4026e-05 4.37615e-05 2.99619e-05 -1.72484e-05 -0.000132511 -0.000357376 -0.000765264 -0.00135921 
-0.00215759 -0.00294928 -0.00354329 -0.00361346 -0.00305513 -0.00205683 -0.000912371 0.000383338 0.000954515 0.00118663 
0.00377637 -0.00252203 0.0119489 0.00331394 0.0101623 0.0013207 -0.00765878 0.000583169 -0.00646837 -0.000488467 
-0.00709297 0.00277349 0.00720782 0.00280138 -0.00319634 -0.00184008 0.00437135 -0.000593039 -0.00470744 -0.000236806 
0.00540797 0.000342597 -0.00405114 -0.000416751 0.00259612 -2.38079e-05 -0.00117353 0.000177393 0.000234509 -3.85804e-05 
0.000178903 -0.000242659 -0.000121306 0.000359564 -0.000121148 -0.000215529 0.000239438 -2.15003e-05 -0.000140517 0.000121673 
-1.41022e-05 -5.73209e-05 5.65591e-05 -1.95206e-05 -1.11218e-05 1.98857e-05 -1.35253e-05 3.88709e-06 2.23285e-06 -3.92585e-06 
3.0459e-06 -1.52547e-06 3.75845e-07 1.93142e-07 -3.4323e-07 2.93166e-07 -1.90523e-07 1.03211e-07 -4.67848e-08 1.73408e-08 
-4.11157e-09 -1.82558e-09 -1.40738e-09 -9.47196e-09 -1.63499e-08 -3.58462e-08 -6.67109e-08 -1.21087e-07 -2.07583e-07 -3.40245e-07 
-5.31652e-07 -7.90946e-07 -1.1168e-06 -1.48927e-06 -1.87009e-06 -2.20922e-06 -2.513e-06 -2.92831e-06 -4.03284e-06 -6.99795e-06 
-1.41844e-05 -2.86818e-05 -5.44198e-05 -9.26204e-05 -0.000139227 -0.000177856 -0.000177049 -0.000103117 6.55361e-05 0.00024975 
0.000279821 -0.000198984 -0.00142911 -0.00339212 -0.00544294 -0.00651429 -0.00611241 -0.004641 -0.00300917 -0.000923833 
-0.00591247 0.00212164 0.00142307 -0.000843474 -0.00232454 -0.018159 -0.00123446 0.0039501 0.0143141 0.00819174 
0.000109725 -0.001242 -0.00578834 -0.00415853 0.000302092 0.00467264 0.000423655 -0.00315258 0.00183261 0.00377354 
-0.0025789 -0.00475456 0.00246699 0.00411459 -0.00184611 -0.00272386 0.00133287 0.00122496 -0.000696952 -0.000297787 
6.10014e-05 6.87497e-05 0.000306132 -0.000269593 -0.000231424 0.000421642 -8.78429e-05 -0.000266426 0.000262275 -2.42294e-05 
-0.000147458 0.000137697 -3.32278e-05 -4.7034e-05 6.0678e-05 -3.25134e-05 9.01198e-07 1.47845e-05 -1.51513e-05 8.67411e-06 
-2.29024e-06 -1.29024e-06 2.29541e-06 -1.92046e-06 1.16615e-06 -5.3584e-07 1.56862e-07 1.55815e-08 -6.95095e-08 6.5111e-08 
-5.27555e-08 2.4126e-08 -3.10246e-08 -1.35821e-08 -4.67569e-08 -6.99859e-08 -1.26154e-07 -2.11346e-07 -3.55786e-07 -5.8835e-07 
-9.59679e-07 -1.53507e-06 -2.3942e-06 -3.60779e-06 -5.18192e-06 -6.94001e-06 -8.30356e-06 -7.9502e-06 -3.32513e-06 9.83547e-06 
3.77915e-05 8.80433e-05 0.000167028 0.00027447 0.000395353 0.000490416 0.000492931 0.000325231 -6.4642e-05 -0.000623529 
-0.00117205 -0.00139403 -0.00107865 -0.00026267 0.000655758 0.00127734 0.00178652 0.00231631 0.00215815 -0.000891807 
0.00620132 0.0057675 0.00510433 0.00630209 -0.0125578 -0.00260957 0.00132389 0.00234215 -0.00395453 -0.0135405 
-0.00610432 0.00201545 0.00762613 0.0074057 0.0024662 -0.00385678 -0.00531231 0.00102916 0.00299001 -0.00229192 
-0.00211549 0.00440984 0.00247644 -0.0049917 -0.00233142 0.00424491 0.00141559 -0.00287525 -0.000437104 0.00141492 
2.95331e-05 -0.000352963 -0.000217609 2.24878e-05 0.000482785 -0.000259358 -0.000353485 0.000483742 -7.20228e-05 -0.00030461 
0.000297472 -5.14286e-05 -0.000139728 0.0001559 -6.48322e-05 -2.33692e-05 5.65984e-05 -4.4261e-05 1.7104e-05 3.27042e-06 
-1.11817e-05 1.03507e-05 -6.27509e-06 2.49076e-06 -2.05492e-07 -7.26628e-07 8.61292e-07 -6.73221e-07 4.32459e-07 -2.4169e-07 
1.2509e-07 -5.1208e-08 3.49202e-08 1.33666e-08 4.69448e-08 8.12604e-08 1.49744e-07 2.62469e-07 4.45581e-07 7.27914e-07 
1.13913e-06 1.69048e-06 2.33688e-06 2.89798e-06 2.91681e-06 1.42345e-06 -3.42231e-06 -1.48051e-05 -3.77626e-05 -7.94644e-05 
-0.000148744 -0.000253967 -0.000398254 -0.000571376 -0.000739996 -0.000841524 -0.000792524 -0.000525429 -5.34717e-05 0.000451465 
0.000657839 0.000185437 -0.00107972 -0.00276247 -0.00403576 -0.00420891 -0.00339538 -0.00197351 0.000280264 0.00427371 
-0.00135372 -0.0038078 0.0123977 -0.0107362 -0.00352999 0.00228284 0.00296198 0.00678196 0.00142955 0.00808266 
0.00667609 0.000995431 -0.00771678 -0.00766968 -0.00507839 0.0018683 0.00615363 0.00486777 -0.00318494 -0.00314927 
0.00238975 0.000747287 -0.0046389 0.000635783 0.00584012 -0.00106921 -0.00532855 0.00144586 0.00354987 -0.00142811 
-0.00167288 0.000853495 0.000571404 -0.000109861 -0.000446787 -0.000126389 0.000658988 -0.000241222 -0.000460786 0.000557846 
-9.64295e-05 -0.000318122 0.000344694 -0.000110982 -0.000104577 0.000164499 -0.000103885 1.69462e-05 3.5742e-05 -4.55414e-05 
3.1139e-05 -1.24615e-05 -2.73681e-07 5.59186e-06 -6.00209e-06 4.37927e-06 -2.53172e-06 1.18127e-06 -4.06089e-07 4.92855e-08 
7.70928e-08 -8.98389e-08 7.7878e-08 -4.13307e-08 4.07895e-08 2.41166e-09 3.99378e-08 5.2385e-08 1.13267e-07 2.31052e-07 
4.99225e-07 1.07462e-06 2.2795e-06 4.71163e-06 9.44613e-06 1.83239e-05 3.43389e-05 6.20647e-05 0.000107938 0.000179995 
0.000286346 0.000431438 0.000609334 0.000794509 0.000933807 0.000947776 0.000753246 0.000315393 -0.000283314 -0.000800513 
-0.000899623 -0.000348312 0.00071301 0.0017582 0.0022956 0.00253179 0.00326254 0.00411915 0.00261444 -0.00219185 
-0.00205338 0.0197806 0.00194427 -0.0122825 -0.000739094 -0.0121162 -0.000655962 -0.00652501 -0.000813365 -0.00419056 
-0.00624295 -0.00211902 0.00689917 0.0113164 0.00443117 -0.000847626 -0.0054677 -0.00584166 -0.00231619 0.00535714 
0.00303363 -0.00279348 -0.00013215 0.00346229 -0.00319027 -0.00425724 0.0047088 0.00377849 -0.00480282 -0.00207733 
0.00366463 0.000516968 -0.0019812 -9.2585e-06 0.000770674 0.000288039 -0.000592689 -0.00032265 0.000836713 -0.00025657 
-0.000536179 0.000656 -0.00018245 -0.000286222 0.000389917 -0.000202704 -2.73165e-05 0.000141896 -0.000132746 6.69e-05 
-5.76402e-06 -2.57087e-05 3.08269e-05 -2.26825e-05 1.20849e-05 -4.20065e-06 -4.73453e-08 1.61843e-06 -1.76295e-06 1.36809e-06 
-9.0788e-07 5.33026e-07 -3.13368e-07 1.32184e-07 -1.32535e-07 -5.72042e-08 -2.03888e-07 -3.3053e-07 -6.29059e-07 -1.13127e-06 
-2.04309e-06 -3.64872e-06 -6.46984e-06 -1.1368e-05 -1.97665e-05 -3.39265e-05 -5.72862e-05 -9.47401e-05 -0.000152595 -0.000237683 
-0.000354855 -0.000502058 -0.000662919 -0.000798835 -0.000846336 -0.000729354 -0.000395843 0.000123096 0.000660349 0.000924468 
0.000636369 -0.000238077 -0.00132814 -0.00205412 -0.00215547 -0.00195628 -0.00149811 0.000810287 0.0061831 0.00901964 
0.0137244 0.00784124 -0.0131342 -0.00144716 -0.00290319 0.00360427 0.0120327 0.00622915 0.00691851 -0.00606139 
0.00049365 0.00111767 -0.000425609 -0.0116652 -0.0092754 0.00185801 0.00748183 0.00546517 0.00258156 -0.00123819 
-0.00621627 -0.00192112 0.00383539 0.000138352 -0.00198295 0.00392724 0.000879369 -0.00644315 0.000390188 0.00641184 
-0.00179297 -0.0043891 0.00226649 0.00201359 -0.00153486 -0.000788429 0.000666676 0.000720062 -0.000685147 -0.000512736 
0.00103139 -0.000350985 -0.000548677 0.000770662 -0.000345712 -0.000174101 0.00039468 -0.000304299 9.56632e-05 6.35603e-05 
-0.000119359 9.98454e-05 -5.38689e-05 1.44315e-05 7.5241e-06 -1.45986e-05 1.34262e-05 -9.4526e-06 5.61355e-06 -2.90087e-06 
1.30947e-06 -4.9611e-07 1.51445e-07 3.53505e-09 1.50512e-08 9.57185e-08 1.34516e-07 2.97707e-07 5.50632e-07 1.03847e-06 
1.90931e-06 3.46419e-06 6.20214e-06 1.09645e-05 1.91298e-05 3.28692e-05 5.54144e-05 9.11707e-05 0.000145336 0.000222448 
0.000323151 0.000438806 0.000544836 0.000596351 0.000532983 0.000301418 -0.000101594 -0.000580503 -0.000927694 -0.000898528 
-0.000386165 0.000412865 0.0010632 0.0013223 0.00158114 0.00248058 0.00348664 0.00261892 0.000594777 0.00438803 
0.00211971 -0.0110573 -0.000360892 -0.0017089 -0.00375486 0.0025213 -0.0039255 -0.00445644 -0.00843446 -0.00174957 
0.00991352 0.00630129 0.00133213 0.00102868 0.0104558 0.00347347 -0.00877762 -0.0100289 -0.000886263 0.00212273 
0.00318164 0.00510863 -0.000145221 -0.00514423 -5.64587e-05 0.00156924 -0.00270575 0.00219969 0.00480586 -0.00501592 
-0.00421228 0.00608023 0.00172544 -0.00496252 0.000359341 0.00273637 -0.000731856 -0.00133142 0.000400317 0.00113297 
-0.000800274 -0.000638126 0.00125223 -0.000572056 -0.000439667 0.00085449 -0.000575102 5.31697e-05 0.000294761 -0.000353358 
0.000228923 -7.03149e-05 -3.59248e-05 7.49916e-05 -6.94343e-05 4.67095e-05 -2.43976e-05 9.17699e-06 -1.1365e-06 -2.01527e-06 
2.59891e-06 -2.15629e-06 1.50275e-06 -9.32876e-07 5.52725e-07 -2.94112e-07 1.60135e-07 -9.97306e-08 -3.79023e-08 -2.35712e-07 
-5.2666e-07 -1.21923e-06 -2.61609e-06 -5.39351e-06 -1.06757e-05 -2.03027e-05 -3.69913e-05 -6.42598e-05 -0.000105697 -0.000163042 
-0.000232628 -0.00030045 -0.000337859 -0.000302382 -0.000150244 0.000135154 0.000504965 0.000822506 0.00089802 0.000605437 
3.03986e-05 -0.000508333 -0.000718702 -0.000742891 -0.00109101 -0.00158958 -0.000450567 0.00357727 0.00636351 0.00209255 
-0.00106037 0.0117923 0.00998213 -0.00871997 0.00246745 -0.00327515 0.00206694 -0.000185746 -8.74364e-05 0.00390959 
-0.00416892 -0.012776 -0.00904535 0.00145315 0.00223584 -0.00572798 0.00234098 0.0123113 0.00650803 -0.00631513 
-0.00481002 -0.00167267 -0.00274954 0.00224219 0.00598309 -0.00113416 -0.00277426 0.00112302 -0.00267665 -0.000775158 
0.00666936 -0.00132049 -0.00709337 0.00376 0.00438998 -0.00425571 -0.00131747 0.00281586 0.000109686 -0.00167569 
0.000117713 0.00152621 -0.00103355 -0.000616112 0.00146638 -0.000946084 -0.000124649 0.000797222 -0.00078908 0.00038218 
3.38023e-05 -0.000253314 0.000274974 -0.000191366 9.05245e-05 -1.77121e-05 -1.89789e-05 2.93925e-05 -2.63495e-05 1.9021e-05 
-1.20617e-05 6.98402e-06 -3.80386e-06 1.95346e-06 -1.02838e-06 4.37561e-07 -3.57317e-07 -5.75702e-08 -3.6214e-07 -4.1756e-07 
-6.3096e-07 -6.90956e-07 -4.78261e-07 5.37976e-07 3.21364e-06 8.99381e-06 1.989e-05 3.81654e-05 6.52571e-05 9.96195e-05 
0.000133461 0.000149456 0.000120126 1.44859e-05 -0.000184237 -0.000451589 -0.000700669 -0.000795586 -0.000625671 -0.000221568 
0.000188788 0.000329985 0.000232844 0.000415185 0.00131491 0.00221538 0.00161283 0.000440966 0.00307 0.00722882 
0.00847593 0.0117367 -0.019544 -0.0115087 0.000195938 0.000771541 0.00851334 -0.000217944 0.00455197 0.00218917 
-7.73054e-05 0.00672383 0.0126185 0.00551079 -0.00865636 -0.00716368 0.00282687 -0.0039851 -0.0106637 0.000734372 
0.0117914 0.00274998 -0.00242827 0.001113 -0.0034686 -0.0056711 0.00409316 0.00439057 -0.0017817 0.000388096 
-0.0020394 -0.0036864 0.0061397 0.00268804 -0.00783159 0.000875467 0.0057964 -0.00300858 -0.00246674 0.00254625 
0.000832979 -0.00195254 -4.62511e-05 0.0018969 -0.00147379 -0.000315978 0.00154619 -0.00141491 0.000455972 0.000437434 
-0.00079517 0.000668162 -0.000337748 4.18039e-05 0.000122664 -0.000166711 0.000142199 -9.59091e-05 5.41653e-05 -2.56925e-05 
9.66645e-06 -2.12816e-06 -6.61709e-07 1.28652e-06 -1.04731e-06 7.67077e-07 -3.03e-07 3.9602e-07 2.2489e-07 5.5188e-07 
7.4603e-07 1.00222e-06 1.07162e-06 6.32119e-07 -9.16359e-07 -4.44839e-06 -1.0908e-05 -2.07083e-05 -3.24625e-05 -4.10144e-05 
-3.53862e-05 1.8288e-06 9.05364e-05 0.000242013 0.000440497 0.000626464 0.000700729 0.000571845 0.000244412 -0.000112741 
-0.000234969 -2.8066e-05 0.000161064 -0.000249532 -0.00117365 -0.00125847 0.000593024 0.0026246 0.0027468 0.00531654 
0.00997572 -0.0115335 -0.0159456 0.0114037 0.00760956 0.00750478 -0.0032673 -0.00776386 -0.00497543 -0.00594235 
-0.00313925 0.00205891 -0.00444152 -0.00795472 0.00116682 0.0159196 0.00844348 -0.00559421 0.000779648 0.00664729 
-0.0067164 -0.0120746 0.00341817 0.00585655 -0.00185198 0.00378296 0.00380198 -0.00818558 -0.00356103 0.00576118 
0.00125419 0.000430333 -0.00092675 -0.00560891 0.00408601 0.00570556 -0.00708892 -0.00154995 0.00618574 -0.00180083 
-0.00311268 0.00220281 0.00140005 -0.00231941 6.66209e-05 0.00216053 -0.00214279 0.000423314 0.00122644 -0.0017275 
0.00119096 -0.000307355 -0.000353872 0.000607458 -0.000550007 0.000360587 -0.000173057 4.50021e-05 2.01894e-05 -4.1729e-05 
4.05542e-05 -3.11543e-05 2.10539e-05 -1.30883e-05 7.63675e-06 -4.28577e-06 2.23558e-06 -1.25881e-06 4.37754e-07 -5.06726e-07 
-2.08389e-07 -4.7268e-07 -3.92464e-07 -2.06918e-07 3.38862e-07 1.11683e-06 1.45734e-06 -7.17616e-07 -1.00389e-05 -3.47446e-05 
-8.68449e-05 -0.000179079 -0.000317285 -0.000487195 -0.00064167 -0.000700739 -0.000583029 -0.000273773 0.000103822 0.000300503 
0.000121394 -0.00028534 -0.00035771 0.000355606 0.00135276 0.0013564 0.000278604 0.000140927 0.00140678 0.00245763 
-0.000279079 -0.013093 0.0116332 0.00900842 -0.00167992 -0.00791162 -0.00803013 0.00203495 0.00500094 0.00614533 
0.0037479 0.00095403 -0.00846595 -0.000988941 0.0024976 -0.00540812 -0.0176596 -0.00301802 0.0129129 0.0027087 
-0.00543803 0.00816868 0.00788474 -0.00990433 -0.00559091 0.00469962 -0.00384131 -0.000518163 0.0109606 -0.00203723 
-0.00994458 0.00236737 0.00372899 0.00117313 0.000366368 -0.006337 0.00167692 0.00736841 -0.00580575 -0.00308347 
0.00599441 -0.000924259 -0.00342393 0.0019953 0.00179762 -0.00290593 0.000675267 0.00204835 -0.00284896 0.00164407 
0.000182712 -0.00138409 0.00159668 -0.0011396 0.000501867 -7.52274e-06 -0.00024734 0.000309375 -0.000266799 0.000190991 
-0.00012094 7.00495e-05 -3.8005e-05 1.97388e-05 -1.00292e-05 5.11103e-06 -2.62438e-06 1.43242e-06 -6.78597e-07 5.3982e-07 
6.80388e-08 6.55288e-07 1.07061e-06 2.35347e-06 4.91456e-06 1.04103e-05 2.16009e-05 4.34424e-05 8.33868e-05 0.000151344 
0.000256765 0.000402932 0.000576257 0.000735849 0.000810493 0.000719211 0.000423602 -1.95562e-06 -0.000341853 -0.00033711 
6.94442e-05 0.000515982 0.000390146 -0.000472633 -0.0012195 -0.000706377 0.000810429 0.00184513 0.001903 8.25182e-05 
-0.00692699 0.00687668 0.00433066 -0.0108782 -0.00981474 -0.00486553 0.00933799 0.00726726 0.0013867 -0.00213451 
-0.00320755 0.000357874 0.00339314 0.0143603 0.00450901 -0.00211953 0.00327985 0.0126988 -0.00595137 -0.018626 
-0.000531725 0.0091776 -0.00695903 -0.00342814 0.013214 0.00142415 -0.0077406 0.00428003 -0.00294853 -0.00939389 
0.0106983 0.00800797 -0.0109678 -0.00303356 0.00448349 0.00208137 0.0014764 -0.00620791 -0.000225035 0.00790612 
-0.00469106 -0.00369538 0.00556402 -0.000433564 -0.00360227 0.00211653 0.00190763 -0.00370265 0.00200412 0.00105303 
-0.00296793 0.0029014 -0.00155562 5.17559e-05 0.000906928 -0.00119799 0.00103943 -0.000709018 0.000394943 -0.000173844 
4.86695e-05 7.64375e-06 -2.47389e-05 2.39978e-05 -1.76183e-05 1.10485e-05 -6.28082e-06 3.03756e-06 -1.71281e-06 3.93768e-08 
-1.34307e-06 -2.28954e-06 -4.72896e-06 -9.40352e-06 -1.82762e-05 -3.46609e-05 -6.37773e-05 -0.000113008 -0.000191908 -0.000309303 
-0.000469167 -0.000660882 -0.000850208 -0.000972736 -0.000945453 -0.000704323 -0.000268262 0.000207216 0.000456 0.000268054 
-0.000258071 -0.000623136 -0.000288115 0.000630132 0.00116091 0.000530451 -0.000524339 -0.00032757 0.00183076 0.00338294 
0.00762926 0.00988381 -0.0121104 -0.00128152 0.00598326 0.0154508 0.00973139 -0.00716176 -0.00797976 -0.00447296 
-0.000647277 0.00045704 -0.00278497 -0.00529877 -0.0149953 -0.00190684 0.00863579 0.00330012 -0.00665646 0.0110444 
0.0169736 -0.0081136 -0.0137515 0.00826068 0.00166331 -0.0133648 0.0044291 0.00914381 -0.00567909 0.00453289 
0.00324548 -0.0158447 0.00296529 0.0159253 -0.00724809 -0.0077276 0.00386076 0.00279762 0.00214396 -0.00572603 
-0.00120532 0.00767941 -0.00405866 -0.00353547 0.00505994 -0.000253786 -0.00383125 0.00281679 0.00133948 -0.00429325 
0.00394338 -0.001298 -0.00145965 0.00289625 -0.0028601 0.00196858 -0.000920858 0.000131766 0.000294029 -0.000431572 
0.000404585 -0.000313525 0.000216746 -0.000138471 8.34502e-05 -4.78305e-05 2.6511e-05 -1.35906e-05 7.69039e-06 -2.00117e-06 
4.31085e-06 4.86175e-06 1.09962e-05 2.0353e-05 3.79137e-05 6.83009e-05 0.000118787 0.000199102 0.00031845 0.000483679 
0.000689479 0.000911417 0.00109544 0.00116203 0.00102839 0.00066041 0.000134921 -0.000333653 -0.000471901 -0.000152243 
0.000393866 0.000619465 0.000136306 -0.000702381 -0.000925436 -8.31018e-05 0.000867633 0.000590148 -0.000105664 0.00337272 
0.0102821 -0.0137119 -0.00980752 0.00802608 0.00411404 -0.00047261 -0.0173738 -0.0142919 0.00190978 0.00764248 
0.00523194 0.00159763 -0.0012258 0.000426087 0.00177934 0.00971236 -0.0050964 -0.0168035 -0.00686964 0.00717432 
-0.0080468 -0.00934851 0.0167699 0.0124767 -0.014235 -0.000678676 0.0128426 -0.0101097 -0.00790322 0.0088727 
-0.00375138 0.00275894 0.0117271 -0.0159133 -0.00755739 0.0191383 -0.00166062 -0.010612 0.00277666 0.00326071 
0.00226039 -0.00525762 -0.00118009 0.00688087 -0.00383285 -0.00285393 0.00456743 -0.000343287 -0.00416077 0.00434265 
-0.000638741 -0.00348841 0.00528818 -0.00438449 0.00205766 0.000208566 -0.00160033 0.00203996 -0.00184462 0.00138574 
-0.000917478 0.000553536 -0.000312315 0.000168998 -9.01994e-05 4.8454e-05 -2.7044e-05 1.45474e-05 -9.61353e-06 2.41039e-06 
-7.07979e-06 -7.7593e-06 -1.78934e-05 -3.19602e-05 -5.86957e-05 -0.00010245 -0.000173779 -0.000281393 -0.000435758 -0.000637213 
-0.000873698 -0.0011058 -0.00126696 -0.00127004 -0.00104376 -0.000587837 -2.72094e-05 0.00039342 0.000426924 3.58342e-05 
-0.000459983 -0.000539324 1.59676e-05 0.000711237 0.000711684 -6.39175e-05 -0.000519566 9.82905e-05 0.000125327 -0.0011913 
-0.00810715 -0.0170937 0.00690304 0.00581454 -0.00381567 -0.0093871 -0.00483347 0.0136237 0.0174705 0.00359571 
-0.00517402 -0.00356489 0.000153659 0.00519628 0.00562652 0.00440508 -0.00381632 0.00923673 0.0185164 0.00158336 
-0.0153695 0.00178631 0.00419405 -0.0180539 -0.00408818 0.0203627 -0.00375447 -0.0123588 0.0152698 0.00297482 
-0.0134775 0.0042111 -0.00304577 -0.00180375 0.0182072 -0.0106955 -0.016408 0.0185805 0.00320041 -0.0118895 
0.00201259 0.00353385 0.00180129 -0.00487348 -0.000285839 0.00547861 -0.00360903 -0.00207267 0.00432696 -0.000995118 
-0.00410225 0.00635931 -0.00447759 0.000360662 0.0033252 -0.00507967 0.00490726 -0.00363495 0.00213624 -0.000937438 
0.000195255 0.000156782 -0.000258676 0.000236436 -0.000172369 0.000109029 -6.08544e-05 3.14094e-05 -1.22305e-05 8.14914e-06 
4.45268e-06 1.19325e-05 2.24693e-05 4.15294e-05 7.43174e-05 0.000129392 0.000214406 0.000342564 0.000517693 0.000740365 
0.000986872 0.00121147 0.00133819 0.00128294 0.000990478 0.000492367 -5.54001e-05 -0.00040452 -0.000353931 5.55476e-05 
0.000464525 0.000424829 -0.000129256 -0.000649699 -0.00048626 0.000210343 0.000532025 0.000333521 0.000509188 -0.00176464 
-0.00845541 0.00998198 0.0142976 0.00270462 -0.00268407 0.00328979 0.0147408 0.0120284 -0.00554453 -0.0171255 
-0.00715773 0.00265767 0.00186634 -0.00201852 -0.00830982 -0.00996236 -0.00669588 0.00436763 -0.0048909 -0.0116365 
0.0091042 0.0227884 -0.00226754 -0.00774616 0.0128247 -0.00448535 -0.020206 0.0118289 0.00947895 -0.018959 
0.00616369 0.0152678 -0.0105794 -0.000187438 -0.00259624 -0.00746264 0.0208084 -0.00379268 -0.0216545 0.016584 
0.00592337 -0.012138 0.00197497 0.00362575 0.000758205 -0.00429206 0.00105418 0.00345719 -0.00287987 -0.00176566 
0.0048719 -0.00311646 -0.00198026 0.00660567 -0.00816062 0.0065673 -0.00337696 0.000279535 0.00177349 -0.00263969 
0.00263904 -0.00219242 0.0016218 -0.00110425 0.00070444 -0.000425219 0.000242994 -0.000132737 6.60918e-05 -3.57862e-05 
7.98121e-06 -1.8885e-05 -2.29893e-05 -4.62611e-05 -8.32542e-05 -0.000141298 -0.000235932 -0.000369348 -0.000553802 -0.00077707 
-0.00101734 -0.00121928 -0.00130926 -0.00120918 -0.000883043 -0.000385592 0.00011372 0.00038365 0.000275437 -0.000113869 
-0.000426641 -0.000307551 0.000196583 0.000557064 0.000315283 -0.000248626 -0.000405539 -3.60784e-05 0.000832689 0.0022631 
0.00856154 0.0135705 -0.00380566 -0.00846404 -0.00744267 0.00237591 -0.00210814 -0.0172732 -0.0201527 -0.00517782 
0.0121749 0.00744815 -0.00260247 -0.00310858 0.000248404 0.0063181 0.00808016 0.00178087 -0.0121812 -0.00449798 
0.00415212 -0.0141982 -0.0197947 0.0127901 0.0151075 -0.0105129 0.00597764 0.0139236 -0.0182798 -0.00277845 
0.0185985 -0.0163551 -0.00824353 0.0199317 -0.00340012 -0.00234555 -0.00172125 -0.0120641 0.0203523 0.00152151 
-0.0233489 0.0150456 0.00603 -0.0115995 0.00266216 0.00343107 -0.000842573 -0.00291371 0.00189423 0.00141122 
-0.00175107 -0.0019497 0.00622682 -0.00729775 0.00431787 0.000758397 -0.00529235 0.00771584 -0.00792141 0.00668686 
-0.00493593 0.00330708 -0.00207315 0.00125151 -0.00074632 0.000446973 -0.000268367 0.000160762 -9.12852e-05 5.45653e-05 
-2.07571e-05 2.66944e-05 1.72732e-05 5.02924e-05 7.9005e-05 0.000144078 0.000231039 0.000366698 0.000540402 0.000753404 
0.000970833 0.00114396 0.00119981 0.00107336 0.000744096 0.000280965 -0.00014905 -0.000344058 -0.000204074 0.000141923 
0.000366452 0.000206384 -0.000221953 -0.000449748 -0.000175551 0.000276815 0.000322492 -0.000118968 -0.000487057 0.00193183 
0.00730445 -0.0112181 -0.0162128 -0.00714979 0.000557341 0.00536031 -0.00502788 -0.00372357 0.0136227 0.024538 
0.0150297 -0.00474656 -0.00541424 0.00459305 0.00714415 0.00513226 -1.02237e-05 -0.00218161 0.00536123 0.0191209 
0.00827534 -0.00652229 0.0075024 0.00814276 -0.0236315 -0.0143346 0.017409 -0.00283857 -0.0087998 0.0191045 
-0.00480994 -0.0135993 0.0209251 -0.00655934 -0.0201324 0.0170985 0.00347342 -0.00257545 -0.000681325 -0.0143973 
0.0186756 0.00344455 -0.021986 0.0144939 0.00365172 -0.00998461 0.0036494 0.00277845 -0.00275464 -0.000151152 
0.000776891 0.00109413 -0.00200804 -0.000459504 0.00538427 -0.00985787 0.0115913 -0.01025 0.00703727 -0.00353033 
0.000811635 0.000759378 -0.00134176 0.00130145 -0.000986681 0.000630488 -0.000346354 0.000160417 -6.09689e-05 1.11987e-05 
-4.23109e-06 -1.45994e-05 -2.15979e-05 -3.95891e-05 -7.84659e-05 -0.000125977 -0.000216352 -0.000331919 -0.000494229 -0.00068029 
-0.000870173 -0.00101053 -0.00104031 -0.000904779 -0.000596682 -0.000189253 0.00016399 0.000295606 0.000145297 -0.00014715 
-0.000299645 -0.000128592 0.00021709 0.00034668 8.18471e-05 -0.000243932 -0.000172513 0.000173972 -0.000178226 -0.00156036 
-0.00683537 -0.0147813 0.00177287 0.0123324 0.0141989 0.00723512 0.000739461 0.00984476 0.0142227 -0.00210163 
-0.0205791 -0.0190886 -0.000279855 0.00493937 -0.00456782 -0.00951907 -0.00903231 -0.00427103 1.50673e-05 -0.00566055 
-0.016302 -0.000614027 0.0182972 0.00270042 -0.00158575 0.0222295 0.00189985 -0.0265444 0.00499138 0.00923239 
-0.01711 0.00981327 0.00779835 -0.0175289 0.017574 0.00507596 -0.0257124 0.0107329 0.00774726 -0.00189716 
-0.000140157 -0.0141575 0.0169295 0.00166244 -0.0174858 0.0137097 -0.000139594 -0.00702124 0.0043115 0.00137646 
-0.00398493 0.00340783 -0.00281494 0.00405119 -0.00599068 0.00626035 -0.00368265 -0.000907982 0.00561369 -0.00885238 
0.0100523 -0.00952196 0.00795932 -0.00603681 0.00421471 -0.00272615 0.00163656 -0.000909333 0.000466882 -0.000214462 
9.24915e-05 -1.74609e-05 1.96224e-05 4.27968e-05 5.48224e-05 0.000117704 0.000178039 0.00028917 0.000420976 0.000582016 
0.000737658 0.000848761 0.000860134 0.000729837 0.000458401 0.000116425 -0.000162615 -0.000245278 -0.000100147 0.000137666 
0.000236249 7.41721e-05 -0.000193889 -0.000257229 -2.42826e-05 0.000202482 0.000123605 -8.55594e-06 0.000191289 -0.00136805 
-0.00649288 0.00600265 0.0167525 0.0117779 -0.000973054 -0.011321 -0.00953571 -0.00441446 -0.0128345 -0.0247291 
-0.0145265 0.00795591 0.0150097 -0.000415471 -0.00916048 -0.000985411 0.00606595 0.00681796 0.00159794 -0.00588473 
-0.00306055 0.00579431 -0.0102496 -0.0256927 -0.00138121 0.00942168 -0.0105149 0.00991594 0.025013 -0.0156312 
-0.00987422 0.0170795 -0.013191 -0.00382676 0.0130332 -0.0163747 0.0116357 0.0138924 -0.0255761 0.00477503 
0.00917003 -0.00109422 -0.000520761 -0.0113089 0.0145902 -0.00242512 -0.00965087 0.0100657 -0.0025635 -0.00380287 
0.00471607 -0.00160883 -0.00199723 0.00397159 -0.00477917 0.00617542 -0.00905098 0.0125862 -0.015167 0.0157539 
-0.0144243 0.0119798 -0.00927899 0.0068513 -0.00487916 0.00335187 -0.00220436 0.0013738 -0.00080796 0.000446202 
-0.000241588 0.00011749 -8.1184e-05 9.22875e-06 -7.1725e-05 -7.73405e-05 -0.000153836 -0.000229626 -0.000344587 -0.000471883 
-0.000597473 -0.00068216 -0.000682996 -0.000567122 -0.000339663 -6.36795e-05 0.000149812 0.000197676 6.73329e-05 -0.000120313 
-0.000181348 -3.918e-05 0.000162705 0.000186013 -6.32269e-06 -0.000162644 -8.96965e-05 5.6167e-05 0.000341263 0.000967806 
0.00399117 0.0119527 0.00279136 -0.0106758 -0.0193945 -0.0126085 -5.64829e-05 0.00335952 0.000170632 0.0079453 
0.0271905 0.0279166 0.00690726 -0.00708179 0.00365616 0.0150343 0.00917553 0.000725826 -0.00114983 0.00438373 
0.0138428 0.0113422 -0.000608547 0.00969314 0.0175232 -0.0132034 -0.0215667 0.00554399 -0.0075979 -0.0122967 
0.024634 0.00345155 -0.0179129 0.0167388 -0.00182435 -0.0126478 0.0115314 -0.0131795 0.00620009 0.0177782 
-0.0221245 0.00130564 0.0083121 -0.000535436 -0.00157054 -0.00598999 0.00943135 -0.00474087 -0.00079164 0.00219344 
-0.000165898 -0.00317529 0.00605723 -0.00698139 0.0057592 -0.00391418 0.00303764 -0.00315353 0.0030659 -0.00188907 
-0.000117137 0.00198007 -0.00290934 0.00277138 -0.00196093 0.00100694 -0.000271728 -0.000128349 0.000252886 -0.000218999 
0.000139235 -5.68512e-05 2.70901e-05 2.43214e-05 3.0233e-05 7.43386e-05 0.000109991 0.000181442 0.000266107 0.000367538 
0.000464271 0.000527974 0.000523828 0.000427035 0.000244347 2.88569e-05 -0.000130383 -0.000155453 -4.45861e-05 0.000100041 
0.000136558 1.85207e-05 -0.000130366 -0.000131785 2.13444e-05 0.000127943 5.06465e-05 -0.00010724 -0.000135206 0.00118295 
0.00538899 -0.00224375 -0.0130054 -0.0139364 -0.00337538 0.0143512 0.019352 0.0119918 0.00760518 0.0113993 
0.00726385 -0.0154235 -0.0284192 -0.0138931 0.00439354 -0.00102028 -0.0142255 -0.0117259 -0.00291956 0.000140206 
-0.00465663 -0.0135501 -0.00835587 0.00906874 0.00395162 -0.00240168 0.0230674 0.0186971 -0.0168696 -0.00330426 
0.00348496 -0.0216759 0.00759358 0.0151536 -0.0178582 0.0103097 0.00901194 -0.0139804 0.00689773 -0.0100821 
0.00310263 0.0167127 -0.0170755 0.000309844 0.0058172 -0.000303278 -0.00198194 0.000135859 -0.000251903 0.00101457 
0.00109526 -0.00419082 0.00511818 -0.00497467 0.0066243 -0.0100201 0.0127129 -0.0134806 0.0135291 -0.0145221 
0.0166033 -0.0184497 0.0186356 -0.0167035 0.0132422 -0.00930433 0.0057924 -0.00316909 0.00148322 -0.000549986 
0.000110887 4.13301e-05 -8.03988e-05 4.09402e-05 -5.98965e-05 -3.40466e-05 -8.96736e-05 -0.000131266 -0.000199294 -0.000274979 
-0.000348115 -0.000395374 -0.000389902 -0.000313219 -0.000171756 -8.14581e-06 0.000108343 0.000119756 2.94605e-05 -7.99995e-05 
-0.000101465 -7.48936e-06 0.000100758 9.21399e-05 -2.5399e-05 -9.3966e-05 -2.07471e-05 6.04724e-05 -0.000150854 -0.000397698 