# vtk DataFile Version 2.0
Titre
ASCII
DATASET STRUCTURED_POINTS
DIMENSIONS 100 100 1
ORIGIN 0.0 0.0 0.0
SPACING 0.1 0.1 0.0
POINT_DATA 10000 
SCALARS rho float
LOOKUP_TABLE default
-0.00166976 -0.000153088 0.00256031 -1.55843e-05 -0.0034539 -0.00298017 -0.000592945 0.00094318 0.000690836 0.000363618 
0.00159902 -0.000542236 -0.0014969 -0.000522376 0.00239932 0.0013136 -0.00140918 -0.002979 -0.000958377 0.00108386 
0.00210302 0.00105729 -0.000734031 -0.00214417 -0.00105706 0.000980058 0.00199808 0.00131254 0.000191594 -0.00108508 
-0.00148882 -0.000704444 0.000606159 0.00141558 0.00154191 0.000782881 -0.000404747 -0.00125098 -0.00152093 -0.00118409 
-0.000448024 0.000233209 0.000651147 0.000755147 0.00057239 0.000306689 6.98724e-05 -7.45367e-05 -9.79656e-05 -6.14221e-05 
-9.61393e-06 2.26133e-05 1.22103e-06 -5.66959e-05 -0.000152395 -0.00024783 -0.000345618 -0.000417623 -0.00045396 -0.000487751 
-0.000456514 -0.000446225 -0.000392902 -0.00035086 -0.000304294 -0.000241889 -0.000210557 -0.000133057 -0.000131892 -4.51021e-05 
-6.56154e-05 -4.38541e-06 -1.56235e-05 -1.06375e-05 -7.48485e-06 -3.0137e-05 -2.81313e-05 -2.47312e-05 -1.35251e-05 4.11429e-05 
5.9073e-05 9.44707e-05 2.21301e-05 -9.13673e-05 -0.000319187 -0.000514746 -0.00064421 -0.000539684 -0.000247167 0.000237989 
0.00076453 0.00120863 0.00120152 0.00083714 0.00108397 0.000935871 -0.000242874 0.000627544 -0.00127092 -0.00290121 
-0.000480399 0.00117358 0.00104704 -0.00205989 3.67861e-05 0.00183016 0.00249877 0.00401334 0.000127776 -0.00108082 
-0.00358045 -0.000898307 0.00180094 0.00261062 -0.000915349 -0.0027091 -0.000931984 0.00170188 0.00118793 -0.000386519 
-0.000351492 -0.000276329 -0.000830582 -0.000384617 0.00120871 0.00113932 9.35281e-05 -0.000179482 -0.00022075 -0.000554575 
-0.000242643 0.000226297 4.94676e-05 3.15867e-05 1.57269e-05 -0.000179538 -0.00015572 3.65695e-05 5.30405e-05 0.000191778 
0.000236708 0.000141406 0.000131647 5.90437e-05 -1.85264e-05 2.24451e-06 -5.54838e-05 -4.61067e-05 -3.56045e-05 -7.84941e-05 
-3.45449e-05 -6.8509e-05 -5.13974e-05 -2.1982e-05 -4.35638e-05 2.07684e-05 7.16562e-06 4.28843e-05 6.42432e-05 6.29159e-05 
9.13561e-05 6.93058e-05 9.92091e-05 4.72971e-05 7.59266e-05 1.82709e-05 1.73489e-05 -5.55658e-06 -4.23743e-05 -1.39065e-05 
-6.18439e-05 -2.27806e-06 -3.23068e-05 3.41099e-05 4.47911e-06 6.05282e-05 5.28128e-06 3.4774e-05 -4.53523e-05 -2.10167e-05 
-6.76637e-05 1.03522e-05 4.62698e-05 0.00015122 0.000122837 3.28197e-05 -0.000232685 -0.000442346 -0.000643512 -0.000617041 
-0.000475207 0.000259468 0.00111695 0.000855591 0.00042489 0.00224345 0.000890861 0.00122909 0.00414356 0.000600996 
-0.00124173 0.00147845 -0.00113711 -0.00294389 -8.77947e-05 -0.00323101 0.000255973 -0.00175859 -0.000984468 -0.000302287 
0.00150079 0.00286014 0.000643157 -0.00236307 -0.00285541 0.000919593 0.00242428 0.000695231 -0.00191836 -0.000379592 
0.00051921 -0.000141288 -0.00064204 0.000973421 0.000600969 -0.00072504 -0.000583225 0.000384423 -4.16076e-05 0.000156833 
0.000664943 0.000364134 -6.58369e-07 0.000235181 -8.18235e-05 -0.000237748 -6.65571e-05 -0.000203642 -0.000223084 -8.92577e-05 
-0.00018933 -0.000128958 -4.37611e-05 -8.83107e-05 9.84357e-06 2.39919e-05 2.37366e-05 8.49646e-05 6.12099e-05 7.8025e-05 
9.18106e-05 5.97952e-05 8.72338e-05 5.08376e-05 5.74507e-05 4.28932e-05 9.10697e-06 3.45049e-05 -3.96246e-05 9.99947e-06 
-4.08583e-05 -3.35064e-05 -2.96829e-06 -4.38932e-05 3.49882e-05 -1.72807e-05 6.53102e-05 1.76676e-05 5.79665e-05 3.60662e-05 
2.41506e-05 5.76061e-06 -1.86315e-05 -4.15814e-05 -6.28529e-05 -6.18883e-05 -8.47707e-05 -2.72371e-05 -4.52439e-05 4.88597e-05 
3.41757e-05 9.57885e-05 4.60717e-05 4.02303e-05 -5.17501e-05 -0.000145445 -0.000331655 -0.000414731 -0.000320057 -2.92486e-05 
3.79404e-05 -0.000102815 0.00112376 0.00182533 -0.000140297 0.000781086 0.00015159 -0.00291939 -0.00134213 0.000845609 
-0.000190786 0.00240557 -0.00347892 0.000655285 -0.000551553 0.00235264 0.00451732 0.00297067 0.00221456 -0.000788064 
-0.00170287 -0.00251342 -0.0016253 -0.00013362 0.002346 0.00149344 -0.000775075 -0.00204092 0.000125952 0.0012713 
-0.000382472 -0.00100302 0.000468356 0.000651191 -0.000884473 -0.000170843 0.00118967 0.000465852 -0.000280285 0.000259021 
-0.000158111 -0.000748936 -0.0001799 -9.60329e-05 -0.000282236 0.000164642 0.000248501 8.50489e-05 0.000344391 0.000221943 
0.000109926 0.000208825 6.78176e-05 5.06186e-06 4.789e-05 -9.998e-05 -6.81151e-05 -7.89529e-05 -0.000163727 -6.67786e-05 
-0.000133571 -9.2058e-05 -3.33076e-05 -8.65444e-05 2.74188e-05 -1.79013e-05 2.66592e-05 5.87591e-05 1.29514e-05 8.07708e-05 
1.28373e-06 5.5669e-05 -2.14709e-05 -6.84939e-06 -2.98109e-05 -8.35657e-05 -2.99332e-05 -9.26462e-05 -2.68966e-05 -4.94955e-05 
2.95141e-05 1.24404e-05 0.000108142 8.17583e-05 0.000157034 0.00011021 0.000117249 1.98042e-05 -4.01077e-05 -0.000177777 
-0.000222159 -0.000292034 -0.000215037 -0.000130257 0.000102864 0.000301072 0.000366875 7.64225e-05 -0.000308033 -0.000336253 
0.0001194 -0.000764925 -0.000823735 0.00207724 0.000945124 0.00231506 0.00418371 0.00280136 3.80635e-05 0.000701256 
0.00187249 -0.00127651 -0.00236076 -0.000775866 -0.00127632 0.000717575 -0.000980111 -0.00262872 -0.00361368 -0.0021174 
0.000829149 0.00365923 0.00252776 0.000595333 -0.00179081 -0.00189475 -7.7026e-05 0.0012803 0.00102178 -0.00119507 
-0.0009959 0.00059966 0.000767349 -0.00075415 -2.67997e-05 0.00121081 2.22665e-05 -0.00116189 -4.02522e-05 0.000227482 
-0.000289398 0.000397038 0.000762676 1.69636e-05 0.000192105 0.000196027 -0.000320936 -0.000224254 -0.000164058 -0.000439758 
-0.000177057 -0.000129456 -0.000192128 4.67423e-05 -8.9155e-07 5.47396e-05 0.000165838 9.30878e-05 0.000159697 0.000154803 
8.70279e-05 0.000132626 3.44785e-05 2.56023e-05 3.20817e-06 -9.03774e-05 -2.70692e-05 -0.000128961 -6.55494e-05 -6.69587e-05 
-8.38583e-05 2.45073e-05 -3.84265e-05 7.30099e-05 3.76255e-05 7.98877e-05 4.94781e-05 5.81308e-05 1.01765e-05 -1.96278e-05 
-4.51179e-05 -0.000110485 -8.75116e-05 -0.000158601 -7.84225e-05 -9.33335e-05 4.50589e-05 0.000103536 0.000274379 0.000329214 
0.000413628 0.000318635 0.000160804 -0.000196276 -0.000580834 -0.000767921 -0.000540367 -0.000136947 1.38763e-05 -0.000175461 
0.00120546 0.00146862 -0.00158 0.000351957 -0.00140093 -0.0026434 -0.00111827 0.000950513 5.26799e-05 -5.4568e-05 
-0.00225085 -0.00190978 -0.00280003 -2.40731e-05 0.000970569 0.00240385 0.00287011 0.00150871 0.00270327 0.00135005 
0.00130675 -0.00213399 -0.00432575 -0.00269677 0.000470719 0.003439 0.00146774 -0.00113648 -0.00207513 -0.000157186 
0.00128357 0.000206274 -0.000967323 4.3124e-05 0.00108549 -0.000342806 -0.00111335 0.000539947 0.00105201 -0.000165117 
8.48429e-06 0.000271246 -0.000679747 -0.000608596 4.90206e-05 -0.000292922 -3.33177e-05 0.000445719 0.00014042 0.000301781 
0.000408026 0.000122436 0.000136019 8.51855e-05 -0.000136139 -6.37335e-05 -0.000143477 -0.000229633 -0.00010244 -0.000186377 
-0.000120372 -3.45881e-05 -8.62745e-05 5.34049e-05 3.52104e-05 7.44182e-05 0.000135554 7.42667e-05 0.000143067 5.50026e-05 
7.6177e-05 1.764e-05 -1.42879e-05 -2.36085e-05 -6.06716e-05 -2.44703e-05 -5.9602e-05 2.4967e-05 -2.01804e-05 8.37502e-05 
3.83752e-05 9.84473e-05 6.97956e-05 6.912e-05 1.44876e-05 -3.70409e-05 -0.000134007 -0.000219705 -0.000330153 -0.000350903 
-0.000347423 -0.00011476 0.000166331 0.000634068 0.000693003 0.000385234 -0.000141511 -0.000340693 -0.000143436 -0.0014288 
-0.00115971 0.00281095 0.000385386 0.00276464 0.00329388 0.00158851 -0.000453715 0.0007897 0.000931162 -0.000695473 
0.00159265 0.000944908 -0.00123313 0.0031647 -0.000684932 0.00260683 -0.00213529 -0.0021022 -0.00327108 -0.0027096 
0.000202624 0.00049005 0.00377321 0.00382868 0.00238051 -0.00169931 -0.00374326 -0.00108086 0.00193779 0.00164655 
-0.00105049 -0.0013585 0.000827906 0.00117685 -0.000681069 -0.00093355 0.00100419 0.000872938 -0.000927643 -0.000682254 
0.000268446 -0.000293861 -7.52327e-05 0.000900618 0.000318809 1.26807e-05 0.000323083 -0.000197018 -0.000466452 -0.000112118 
-0.000404505 -0.000311805 -2.39017e-05 -0.000157896 0.000107779 0.000185864 0.000123766 0.000268598 0.000181217 0.000143934 
0.000148512 9.95555e-06 1.17331e-05 -4.89505e-05 -0.00013084 -7.20948e-05 -0.000150809 -9.73815e-05 -7.14517e-05 -7.23797e-05 
3.99119e-06 -1.00643e-06 6.83765e-05 1.29921e-05 9.44896e-05 -1.97967e-06 3.13765e-05 -9.27909e-06 -4.43798e-05 -3.07253e-05 
-6.09837e-05 -3.04072e-05 -4.84942e-05 9.46652e-06 -3.06977e-06 9.04166e-05 8.31265e-05 0.000243811 0.000212333 0.000324511 
9.8294e-05 -7.90162e-05 -0.000520138 -0.00055652 -0.000228377 4.20989e-05 7.49349e-05 -0.000324074 0.00106109 0.000800579 
-0.00320873 0.000624858 -0.00185493 -0.00183055 -0.000276372 0.00110199 -0.000644758 -0.00144449 2.97817e-05 0.00129206 
-0.00066954 -0.00592719 -0.00134552 -0.00194743 -0.000612843 0.00145284 -0.00124165 0.00194391 0.000539687 0.00353041 
0.00161124 -0.000964699 -0.00297678 -0.00474576 -0.00289184 -0.000572227 0.00287451 0.0030163 -0.000259399 -0.00278767 
-0.000924235 0.00195697 0.00109589 -0.00165757 -0.000806891 0.00137264 0.000572802 -0.00147089 -0.000328865 0.00114298 
0.000214071 -0.000142455 0.000535699 -0.000289497 -0.000928164 -3.99494e-05 -0.000137646 -0.000277907 0.000478964 0.000325767 
0.000204016 0.000438788 0.000115489 1.14754e-05 3.95862e-05 -0.000231591 -0.00022271 -0.000202752 -0.000275635 -0.000153665 
-0.000114635 -5.37313e-05 5.50001e-05 8.24957e-05 0.000144921 0.000132559 0.000132315 0.000103935 1.80654e-05 4.52088e-05 
-9.69879e-05 -5.17617e-05 -9.3143e-05 -0.000122135 -2.87619e-05 -9.23341e-05 3.11793e-05 -4.06299e-05 7.23982e-05 -2.37418e-05 
6.8929e-05 -2.54674e-05 6.58461e-05 -8.24041e-06 6.00101e-05 1.74832e-05 -3.58522e-05 -0.000103296 -0.000186632 -0.000131241 
4.18322e-05 0.000280104 0.000387733 -7.48101e-05 9.03735e-06 4.29908e-05 0.000493551 -0.00110201 -0.000931377 0.00341033 
-0.001261 0.00220495 0.00240188 0.00109619 -0.00018183 0.00111947 0.00146373 -0.000238588 -0.00173134 -0.00216516 
-0.00361618 0.000383332 0.00141767 0.00243712 0.00355097 0.00184451 0.000145283 -0.00041907 -0.00176934 -0.000198474 
-0.00188008 0.000235288 0.00236247 0.00515567 0.00536274 0.00187442 -0.00193626 -0.00396081 -0.00216253 0.0017196 
0.00275752 -0.000132769 -0.00248852 -0.000200479 0.00218702 0.000208681 -0.0017777 0.00013569 0.00163 -0.000311684 
-0.00104541 0.000202055 -0.000167028 -0.000619564 0.000741715 0.000711371 -0.000113347 0.000303724 4.96308e-05 -0.000616633 
-0.000199743 -0.000305868 -0.000430031 0.000116407 -2.62257e-05 0.000106068 0.000358627 0.000148091 0.000304576 0.000205011 
4.28308e-05 0.000117072 -0.00010437 -0.000106414 -0.000101489 -0.000208646 -6.81305e-05 -0.000109819 -1.02331e-05 6.54053e-05 
4.43868e-05 0.00018254 5.95879e-05 0.000157825 4.07229e-05 5.31853e-05 5.61339e-06 -1.63265e-05 3.07198e-06 -4.71237e-05 
4.67781e-05 -9.77844e-05 1.65356e-05 -0.000160935 -7.62316e-05 -0.000139055 4.43624e-05 4.77056e-05 0.000188868 -2.07941e-05 
1.41994e-05 -0.000177887 0.000432799 -1.86812e-05 -0.000254126 -0.000680049 0.000848708 0.000820605 -0.00391722 0.00183864 
-0.00216266 -0.00205857 -0.000334156 0.00107554 -0.000163322 -0.000836509 -2.54745e-05 0.000624678 0.000318307 -0.000196335 
0.00201201 0.00112335 -0.00054891 0.00118893 -0.00156606 -0.000845279 -0.00245356 -0.000918963 0.000213098 0.00157601 
0.000330063 -6.19642e-05 -0.00219452 -0.00409549 -0.00583853 -0.00499149 -0.000276501 0.00380947 0.0042097 0.000506401 
-0.00311155 -0.00208997 0.00143864 0.00250469 -0.000912375 -0.00216852 0.000623953 0.00176083 -0.000924375 -0.0013702 
0.000867268 0.000662034 -0.000404788 0.000603399 0.000386589 -0.00103771 -0.000389751 0.000131516 -0.000461244 0.000326367 
0.000580936 9.24915e-05 0.000488344 0.000216107 -0.000182023 -6.90913e-06 -0.000293727 -0.000307404 -0.000166805 -0.000284895 
-5.61975e-05 -6.18426e-06 1.19509e-05 0.000185482 7.69763e-05 0.000154675 0.000126149 -3.64265e-05 6.90516e-05 -0.000122322 
-0.000101722 -9.11742e-05 -0.000133066 -2.71646e-05 -8.02291e-05 9.03832e-05 -6.47465e-05 0.000123012 -5.00135e-05 4.97109e-05 
-1.66296e-05 5.98387e-05 6.769e-05 0.000154019 0.000125463 4.33808e-05 -2.38364e-05 -0.000127869 -1.69948e-05 -0.000155524 
-7.94098e-05 -0.000670143 -0.000103403 0.000540309 0.000623884 -0.000607653 -0.000885535 0.00418811 -0.00257035 0.00195455 
0.00213063 0.000429098 -0.0005594 0.000850915 0.00136455 0.000406507 -0.000634747 -0.000626607 -0.00100178 -0.00032397 
-0.00149204 -0.00577637 -0.00111834 -0.00132195 -0.000151839 0.00126989 -0.000674198 0.00176722 0.000438116 0.00104245 
-0.00073655 0.000754598 0.00196842 0.00469522 0.00589022 0.00554371 0.00315053 -0.0022245 -0.00517014 -0.00375949 
0.0014785 0.00389183 0.000965684 -0.00260287 -0.00182466 0.00195691 0.00162295 -0.00140583 -0.0012507 0.00154883 
0.000714535 -0.00109259 -0.000135634 0.000278076 -0.00098087 0.000106693 0.00109991 3.6671e-06 0.000110609 0.000362354 
-0.000596038 -0.000453185 -8.90477e-05 -0.000552799 -1.08156e-05 0.000217203 1.88822e-05 0.000446663 0.000229253 0.000115715 
0.000241746 -0.000102921 -6.33349e-05 -7.67152e-05 -0.000223107 -5.96119e-05 -7.28301e-05 -1.09669e-05 6.4964e-05 8.37036e-05 
0.000149685 1.86453e-05 0.000109689 -4.75203e-05 -6.76727e-05 -5.56405e-05 -0.000149574 -8.92018e-06 -0.000115284 6.9543e-05 
-0.000108813 5.17486e-05 -0.000171872 -2.20776e-05 -0.000108992 5.46909e-05 -1.44369e-05 6.54186e-06 0.000156459 0.000316218 
0.000809119 0.00031398 -0.000806768 -0.000384014 0.000412261 0.000798108 -0.00445662 0.00289664 -0.00181536 -0.00243586 
-0.000345071 0.000713254 -0.000481802 -0.000512938 0.000391276 0.00101781 7.85644e-05 -0.00046629 -0.000385996 -0.00192143 
-0.00331514 0.00140984 0.00420211 0.00334699 0.00445491 0.00129791 8.84681e-05 0.000734975 -0.000457728 0.000460195 
-0.00136014 -0.000281583 -0.00240552 -0.00341226 -0.00668809 -0.00676148 -0.00460319 -0.000351665 0.0046473 0.00557981 
0.00226217 -0.00331401 -0.00380182 0.000502622 0.0032385 0.000634757 -0.00256579 -0.000643192 0.00187033 0.000326566 
-0.00170568 8.43923e-05 0.000953302 -0.000419843 0.000272437 0.00101218 -0.000618862 -0.000918524 0.00025455 -0.000421002 
-0.000111675 0.000789699 0.000152296 0.000310687 0.000405533 -0.000196227 -6.21045e-05 -0.000237208 -0.000401226 -0.000113155 
-0.00016894 -1.89804e-05 0.000128691 8.77346e-05 0.000207917 9.23772e-05 2.04086e-05 4.19079e-05 -0.000152668 -8.82025e-05 
-0.000117728 -7.78391e-05 3.2021e-05 2.84903e-05 0.000195309 0.000101191 0.000193739 8.38897e-05 7.64774e-05 1.20485e-05 
1.08589e-05 -6.31563e-06 3.16592e-05 -1.55913e-05 3.8211e-05 5.40544e-05 0.000213129 -0.000131957 -0.000337997 -0.00087697 
-0.000385729 0.00100967 0.000126289 -0.000392997 -0.000490308 0.00448424 -0.00297933 0.00145398 0.00264519 0.000201105 
-0.000907339 0.000699997 0.000629975 1.11835e-05 -0.00055658 0.000359914 0.000798101 -0.000416678 -0.000877241 -0.000146994 
0.00139784 0.00238508 -0.000678908 -0.00133229 -0.00344837 -0.00500638 -0.00361273 -0.00221683 -0.00106337 -0.000415239 
-0.000559327 0.0012243 0.00166778 0.00430591 0.00487851 0.00745322 0.00596626 0.00239008 -0.00307797 -0.00658155 
-0.00490587 3.60691e-05 0.00458955 0.00277334 -0.00194624 -0.00308606 0.000805606 0.00246064 -0.000470874 -0.00184666 
0.000767271 0.00127833 -0.000741626 -0.000455434 0.000686034 -0.000940209 -0.000766673 0.00110054 0.00039078 -0.000106179 
0.000542271 -0.000242909 -0.000676156 -5.65998e-05 -0.000418488 -0.000197564 0.000292871 2.35594e-05 0.000347485 0.000303503 
5.11889e-05 0.000133761 -0.000112806 -0.000117382 -0.000143077 -0.000162337 1.22797e-05 -3.74386e-05 0.000101312 0.000183199 
2.90273e-05 0.000119944 -5.02771e-05 -8.26246e-05 -0.00016759 -0.000173814 -0.000148323 -0.000149803 3.28392e-05 -7.92349e-05 
0.000217629 -5.2054e-05 0.000245941 -0.000167347 8.5194e-06 -0.000525064 9.7565e-05 0.000220256 0.000849767 0.000342501 
-0.00116248 0.000224305 0.000604135 0.000103533 -0.00425338 0.00291431 -0.00113962 -0.00280409 -0.000319033 0.00125162 
-0.000989985 -0.000531562 0.000184349 0.00105326 0.000272597 -0.000735329 -0.00012547 0.000552649 -0.00058782 -0.000677916 
-0.000299858 -0.00392757 -0.00199236 -0.000138294 0.000696664 0.00308815 0.00400664 0.00505311 0.00405458 0.00260785 
0.00139526 0.000479535 -0.000973946 -0.00270195 -0.00563489 -0.00603464 -0.00691017 -0.00364932 0.000929363 0.00627237 
0.00741527 0.00310261 -0.00256556 -0.00495677 -0.00100984 0.00299524 0.00210742 -0.00202633 -0.00168947 0.00145608 
0.00118944 -0.00150873 -0.000544796 0.00113708 -0.000345007 -0.000380093 0.00136174 0.000300911 -0.00123697 5.71777e-05 
-0.000159439 -0.000579716 0.000697352 0.00029477 9.32456e-05 0.000553058 -0.000239135 -0.000168165 -6.10254e-05 -0.000479399 
-5.14715e-05 -0.000106685 -9.80173e-05 0.000276176 3.37291e-05 8.73044e-05 0.000150397 -7.71881e-05 -5.01861e-05 -0.000140352 
-5.06115e-05 -6.84258e-05 1.07975e-07 0.00016921 5.80172e-05 0.000279263 5.36784e-05 0.00010684 -3.43308e-05 -0.000212197 
-0.000151188 -0.000305736 5.43038e-05 5.21916e-05 0.00058782 0.000125627 -0.000241242 -0.000507248 -0.000317981 0.00152589 
-0.000698159 -0.000840226 0.000303253 0.003874 -0.00282232 0.000981122 0.00278687 0.000624183 -0.00182887 0.00120039 
0.000618016 -0.000125077 -0.000930816 -0.000318559 0.00108652 0.000764656 -0.000530455 -0.000588496 -0.000220981 -0.00125898 
-0.00267801 -0.000528924 0.00424871 0.00333276 0.00285819 0.000119297 -0.00237143 -0.00309097 -0.0050812 -0.00455646 
-0.00401152 -0.00225929 -0.000380559 0.00116225 0.0032512 0.00587316 0.00584521 0.00479089 -0.000107085 -0.00484153 
-0.00854808 -0.00665617 -0.000463652 0.00468225 0.00419421 -0.000953579 -0.00336257 -0.000513195 0.00255332 0.000540936 
-0.00200913 -8.00714e-05 0.00160524 -0.00027253 -0.000973589 0.000921461 -0.000206521 -0.00154471 0.000408211 0.00082621 
-0.000171595 0.00050738 0.000211062 -0.000716686 -6.33594e-05 -0.000218672 -0.00038095 0.000396849 0.000122847 0.000183043 
0.000370785 3.06708e-05 7.6354e-05 -9.58393e-05 -0.000112559 -4.25512e-05 -0.000142927 5.10197e-05 0.000112885 -9.96696e-06 
0.00017559 -7.1079e-05 2.85411e-05 -0.000147632 -0.000207679 -0.000124083 -0.000150247 5.36921e-05 0.000141932 0.000371232 
0.000260747 0.000202825 -0.00019471 -0.000337003 -0.000430142 0.000512273 -3.85957e-05 0.000348931 -0.00201504 0.00121585 
0.00119168 -0.000750491 -0.00316074 0.00277819 -0.000813358 -0.00265174 -0.00101734 0.0023796 -0.0012402 -0.000945899 
7.90944e-05 0.000794635 0.000718258 -0.000667896 -0.000680118 0.000431979 0.000591266 -0.00015288 -0.000443481 -0.000601255 
-0.000294298 0.00353886 0.00162972 -0.00168074 -0.00344971 -0.00521006 -0.0023559 0.0003843 0.00214826 0.00437175 
0.00419513 0.0044608 0.00291606 0.000516279 -0.00145003 -0.00335227 -0.00497437 -0.00390496 -0.00118479 0.00465984 
0.00840898 0.00924966 0.00423986 -0.00251604 -0.00573101 -0.00245194 0.00260842 0.00279917 -0.00109093 -0.00231359 
0.00074448 0.00174972 -0.000882337 -0.00119378 0.00100542 0.000182781 -0.000934188 0.000886995 0.00120425 -0.000785856 
-0.000352136 0.000112737 -0.000789165 0.000265168 0.000549847 -0.00014515 0.000450923 3.4982e-05 -0.000417323 -4.75125e-05 
-0.000386376 -0.000191032 5.12316e-05 -8.20569e-05 0.000141889 9.54554e-05 5.43005e-05 -1.11871e-05 -8.79677e-05 -6.25262e-05 
-1.01477e-05 -8.70206e-05 0.000172065 9.23014e-05 0.000318996 4.8166e-05 0.000146343 -0.000186369 -0.000279242 -0.000350244 
-0.00022037 0.000151625 0.000114995 0.000428968 -0.000758007 0.000370169 -0.00014857 0.0022847 -0.00137626 -0.00181218 
0.0015929 0.00201069 -0.00259621 0.000541952 0.0025405 0.00144345 -0.00277902 0.00107047 0.00134243 -7.28235e-06 
-0.000637183 -0.000858518 0.00035644 0.000838065 -4.89009e-05 -0.000302165 -7.09529e-05 2.88168e-05 -0.000257208 -0.000102849 
0.000996136 -0.000224399 -0.00278136 -0.00170264 -0.000397592 0.0023409 0.00558164 0.00466458 0.00268556 8.36225e-06 
-0.00268396 -0.00306615 -0.00358031 -0.00280493 -0.000643706 0.00129009 0.00267785 0.00281255 0.000281993 -0.00353946 
-0.00900605 -0.0105802 -0.00790532 -0.000646328 0.00519291 0.00531947 0.000241941 -0.00355244 -0.00137905 0.00210404 
0.00145284 -0.00171806 -0.000826459 0.00139044 0.000317278 -0.00112666 0.000618881 0.000601812 -0.00153101 -0.000424525 
0.00073984 -0.000169593 0.000399743 0.00058 -0.000556952 -0.000152396 -5.05418e-05 -0.000375586 0.000288792 0.000153455 
0.000261513 0.00040246 -8.6847e-05 9.33642e-05 -2.15769e-05 -0.000213675 -7.93201e-07 -3.66651e-06 3.19977e-05 4.6111e-05 
3.01349e-05 -6.57033e-06 -0.000120383 -0.000267383 -0.000118356 -0.000167078 9.29618e-05 0.000107303 0.000328302 6.65932e-05 
-8.19196e-05 -1.11803e-05 -0.000122514 0.000907369 -0.000346751 -0.000317279 -0.00216409 0.00110689 0.00263999 -0.00286621 
-0.000592679 0.00239726 -0.000266428 -0.00224183 -0.00197719 0.00317981 -0.00088482 -0.00160246 -0.000232738 0.000592501 
0.000798211 1.68055e-05 -0.000727122 9.04092e-05 0.000330067 0.000101753 -0.000160472 -0.000189862 -0.000189186 -0.000519574 
-0.000822447 -0.00200373 0.000655464 0.00289922 0.00239132 0.00168501 -0.00116152 -0.00468584 -0.00581823 -0.00538939 
-0.00314474 -7.15889e-05 0.00118354 0.00177984 0.00175212 0.000430966 -0.000664495 -0.000999 0.000438967 0.00441908 
0.00840443 0.012035 0.0103741 0.00455518 -0.00336304 -0.00673405 -0.00366208 0.00190382 0.00339813 -0.000238669 
-0.00238847 -0.00013135 0.00181513 -0.00014185 -0.00138901 0.000681797 0.000612279 -0.00115918 0.000153681 0.00152409 
-9.71897e-05 -0.000476789 0.000322038 -0.000739606 -0.000271199 0.000669616 -0.000158486 0.000184879 0.000311512 -0.000440788 
-0.000150254 -0.000265931 -0.000258411 -1.73546e-06 -2.0253e-05 0.000192107 2.27494e-05 6.25525e-05 6.8502e-05 -2.62386e-05 
1.98401e-05 4.06115e-05 0.000110451 0.000226599 -6.99244e-05 0.000134926 -0.000154709 5.8997e-05 -6.61852e-05 0.000375582 
-0.000219841 -1.48855e-05 -0.00122104 0.000327584 0.000681829 0.00190788 -0.000835822 -0.00327579 0.00419221 -0.000615558 
-0.00249785 0.000280775 0.0014514 0.00269399 -0.00380548 0.000752939 0.00160209 0.000533384 -0.000659957 -0.000748855 
-0.000205406 0.00060082 1.02518e-05 -0.000326498 8.37213e-05 0.000319216 0.000131645 -0.000473605 -0.000251461 -0.000480696 
-0.00120213 0.00101363 0.00333257 0.000879304 -0.00219608 -0.00359024 -0.00335198 -0.000503873 0.00330281 0.00591033 
0.00700729 0.00627975 0.00366675 0.00161349 0.000616675 -8.72319e-05 6.97263e-05 -0.000271685 -0.00161122 -0.00431391 
-0.00914531 -0.0119867 -0.0127092 -0.00732003 0.000175154 0.0068812 0.00654079 0.00137703 -0.00342305 -0.00221164 
0.00140302 0.00192101 -0.00101268 -0.00120673 0.000925886 0.000631626 -0.00103267 2.1588e-05 0.00128135 -0.00087327 
-0.00116108 0.000443845 -4.0608e-05 2.0288e-05 0.000762393 -0.00019522 -0.000218544 4.41622e-05 -0.000391825 0.000221898 
0.00023295 7.03516e-05 0.000443669 0.000111061 -7.03342e-05 -1.48596e-06 -0.000222078 -7.88842e-05 -0.000150478 -0.000154398 
3.76105e-05 -5.75359e-05 -0.000146964 0.000227134 -0.000104997 0.000221926 -0.000397835 7.32762e-05 -0.000777595 0.00046753 
-4.05437e-05 0.00157795 -0.000411696 -0.000882301 -0.0015736 0.000792325 0.00360485 -0.00539181 0.00141215 0.0027978 
-0.000676521 -0.000408501 -0.00350949 0.00440103 -0.000613299 -0.00172611 -0.000820525 0.000446109 0.000784941 6.08647e-05 
-0.000531158 -0.000183955 0.000499587 9.43797e-05 -0.00035701 -0.000265874 0.000388056 7.92512e-05 -0.000458072 -0.000173449 
0.00015856 0.00215008 0.00034505 -0.00278134 -0.00261892 9.12925e-05 0.00348881 0.00488804 0.0030653 -0.00100955 
-0.00486912 -0.0073018 -0.00827628 -0.00710402 -0.00490751 -0.00344442 -0.00176341 -0.000665598 0.001396 0.00453627 
0.00805888 0.0124473 0.0129457 0.0101722 0.00191092 -0.0053192 -0.00885254 -0.00481867 0.000998139 0.00369302 
0.000782529 -0.00195427 -0.00078479 0.00125934 0.000433807 -0.00120862 0.000333856 0.000873563 -0.000795661 -0.000603408 
0.000987359 0.000598703 -0.000188067 0.000118585 -0.000360451 -0.000496777 0.000234791 3.72089e-05 9.6167e-05 0.000142483 
-0.000264536 -5.72863e-05 -0.000339041 -0.000202952 -4.11919e-05 0.000118954 0.000147262 0.000232121 0.000298104 6.46721e-05 
3.50023e-05 7.35883e-05 -0.000241643 -0.000104996 -0.000184403 0.000392828 0.000123391 0.000781927 -0.00041249 -0.000180891 
-0.001466 0.00024262 0.00137803 0.00077617 -0.000680802 -0.0040518 0.00665409 -0.00219376 -0.00285801 0.00109639 
-0.000419625 0.00407109 -0.00480165 8.89655e-05 0.00196183 0.000771648 -0.000161186 -0.00110307 -8.81077e-05 0.00045202 
0.000220957 -0.000588231 -0.000475566 0.000426404 0.000536254 -0.00016727 -0.000367951 -6.38551e-06 -0.000157545 -7.50965e-05 
0.00058609 0.000134926 -0.00162239 -0.0010249 0.00143921 0.00307506 0.00195582 -0.00190177 -0.00509963 -0.00550836 
-0.00227563 0.00245554 0.00617098 0.00862613 0.0092541 0.00768093 0.00616776 0.0033706 0.00112746 -0.00261109 
-0.00682968 -0.0105996 -0.0128704 -0.0104631 -0.00425948 0.00453959 0.00963571 0.00858365 0.00230839 -0.0028568 
-0.00277952 0.000255987 0.00169633 -0.000127652 -0.000889209 0.000366832 0.000557915 -0.000642091 -0.000439247 0.00100551 
7.74281e-05 -0.000863027 -6.23551e-05 -0.00027736 -3.21291e-05 0.000893387 -2.88728e-05 -0.00019135 0.000310545 -0.00026331 
-4.79135e-05 0.00027012 0.000100516 0.000266172 -0.000109925 5.97842e-05 -0.000260696 -0.000305058 -0.000220416 1.55018e-05 
-8.22598e-05 0.000187353 0.000185898 0.000119715 -0.000328722 -0.000325205 -0.000489584 0.000246597 0.000715157 0.000905997 
0.000150681 -0.00228331 0.000448961 0.000408008 0.00467986 -0.00789689 0.00316764 0.0026113 -0.00148745 0.000944016 
-0.0046073 0.00510781 0.000577767 -0.00214421 -0.000755207 -9.80178e-05 0.0011203 0.00029364 -0.000753472 -0.000395375 
0.00027174 0.000720484 -0.000351447 -0.000700088 5.73503e-06 0.00035852 0.000186326 -0.000193821 -0.000416416 -0.000202904 
-0.00011986 -0.000829575 0.000177796 0.0016038 0.00136807 -0.000496277 -0.00292256 -0.00334391 -0.000173855 0.00391497 
0.00669256 0.00576451 0.00130167 -0.0032704 -0.00711721 -0.00932374 -0.00892058 -0.00782994 -0.00433818 -0.001223 
0.00361046 0.00767446 0.0106153 0.00961072 0.0044095 -0.0038143 -0.0104992 -0.0116363 -0.0064067 0.000393083 
0.00343947 0.0017031 -0.000842476 -0.000714484 9.98748e-05 0.00029029 -0.000524715 0.00011837 0.000574031 -0.000239467 
-0.00049864 3.93699e-05 0.00027676 0.000423819 0.00016993 -0.000497417 -0.000414411 9.41551e-06 -0.000266063 0.000122084 
0.000208321 -0.000209989 3.46531e-05 -0.000103734 4.15728e-06 9.29717e-05 7.88434e-05 0.000358626 -0.000171713 0.000163988 
-0.000229599 -1.81425e-05 -7.83428e-05 0.000455662 0.000393943 0.000245332 -0.000318353 -0.00121503 -0.000402404 -0.000330414 
0.00310435 -0.00146415 -0.000408913 -0.00484831 0.00854955 -0.00399227 -0.00261576 0.00220654 -0.0016699 0.00572262 
-0.00566818 -0.000974389 0.00200632 0.000956786 0.000112072 -0.00081393 -0.000749119 0.000943852 0.000581325 -9.21168e-05 
-0.000877209 -0.000125461 0.000625522 -3.12725e-05 -0.000189113 -0.000286868 -8.31992e-06 0.000256739 -0.000305351 -0.000409494 
-0.000459841 0.000188524 0.00173671 0.000529224 -0.00162743 -0.0022209 -0.000727361 0.00235721 0.00436803 0.00233182 
-0.00176688 -0.00620311 -0.00819642 -0.00552103 -0.00130568 0.00359652 0.00691088 0.00794116 0.00748473 0.00424808 
0.000798902 -0.00386 -0.00659845 -0.00713405 -0.00293337 0.00430221 0.0116235 0.0143926 0.0104105 0.00323662 
-0.00261435 -0.00290068 -0.00112876 0.000628838 0.000225416 0.000320838 0.000420962 -0.000202323 -0.000362876 8.06382e-05 
0.000221274 0.000120302 8.16246e-05 7.91959e-05 -0.000537135 -0.000185275 0.000698835 0.000321732 4.04495e-05 -3.27721e-06 
-0.000143916 -1.63043e-05 -0.000137789 -9.42008e-05 0.000200508 -0.000152085 7.2942e-05 7.30689e-06 0.000151775 2.26035e-05 
-8.12885e-05 -6.07175e-05 -0.00064539 -0.000441075 -7.78074e-05 0.000556443 0.00156846 0.00010433 0.00022323 -0.00355484 
0.00201469 0.000832837 0.00416588 -0.00847341 0.00453954 0.00308947 -0.00319915 0.0028801 -0.00744518 0.00635632 
0.00125311 -0.00185807 -0.00107008 -9.67054e-05 0.000569467 0.00107504 -0.000619926 -0.000940754 8.54805e-05 0.000776587 
0.000533577 -0.000528753 -5.45694e-05 -2.37241e-05 6.0186e-05 0.000105008 -0.000389414 7.669e-05 -6.95482e-05 -0.000283948 
-0.000138087 0.00104759 0.000936964 -0.00156854 -0.00179862 0.000549317 0.00255639 0.00238329 -0.000810765 -0.00464392 
-0.00440122 -0.00106788 0.00424342 0.00875518 0.00894267 0.00653529 0.00169832 -0.00216156 -0.00445581 -0.00479069 
-0.00269993 4.00814e-05 0.00296707 0.00334579 0.00044875 -0.00586684 -0.0132233 -0.0166955 -0.0145289 -0.00659075 
0.000323057 0.00356875 0.00251068 0.00109901 0.000215109 -0.00085302 -0.00102327 1.75307e-05 0.000741151 0.00011366 
-0.000670959 0.0003062 0.000212655 -0.000835018 0.000254393 0.000920898 -0.000469382 -0.000482921 0.000157833 -0.000352339 
0.000410086 3.2595e-06 2.63932e-05 0.000391098 -0.000521293 -4.59467e-05 -9.15149e-05 -0.000583566 0.000452434 -0.000249729 
0.000788038 0.000328891 0.000886074 -0.000464791 -0.000494298 -0.0020409 0.000347045 -0.000151407 0.00379705 -0.00248288 
-0.00132878 -0.00293884 0.00826238 -0.00518696 -0.00344731 0.00392845 -0.00431392 0.00914923 -0.00661591 -0.00198665 
0.00227696 0.000850013 0.000312067 -0.000546439 -0.0010449 -5.00967e-05 0.00134972 0.000155279 -0.000592747 -0.000496305 
0.000412072 0.000313648 7.51846e-05 9.28895e-05 -0.000223912 0.000258398 -0.000177414 -0.000221262 -3.35511e-05 -0.000148186 
0.000163482 0.00079151 -0.00033583 -0.00155947 0.000406561 0.00211678 0.000874658 -0.00168678 -0.00349131 -0.00145254 
0.00347548 0.00574746 0.00426642 -0.00100359 -0.00714144 -0.010527 -0.0108409 -0.00779689 -0.00405805 -0.00127398 
0.000251709 -0.000352859 -0.000890201 -0.00101103 0.00194998 0.00759863 0.0144967 0.0189068 0.0172602 0.0101099 
0.00158329 -0.00350421 -0.00376932 -0.00288085 -0.0019574 -0.000116801 0.00191159 0.00129407 -0.00146993 -0.000868162 
0.00113649 -7.05641e-05 -0.00103721 0.000599221 0.000591522 -0.00103755 -0.00020775 0.000381583 -0.000200313 0.000226701 