# vtk DataFile Version 2.0
Titre
ASCII
DATASET STRUCTURED_POINTS
DIMENSIONS 100 100 1
ORIGIN 0.0 0.0 0.0
SPACING 0.1 0.1 0.0
POINT_DATA 10000 
SCALARS rho float
LOOKUP_TABLE default
-1.34e-28 -5.93043e-28 -2.59348e-27 -1.08723e-26 -4.36745e-26 -1.67838e-25 -6.15945e-25 -2.15452e-24 -7.16797e-24 -2.26289e-23 
-6.7612e-23 -1.90639e-22 -5.0559e-22 -1.2565e-21 -2.91369e-21 -6.27303e-21 -1.2466e-20 -2.27065e-20 -3.75883e-20 -5.59498e-20 
-7.38553e-20 -8.48456e-20 -8.25278e-20 -6.49837e-20 -3.7901e-20 -1.25252e-20 1.73413e-21 4.01747e-21 1.00795e-21 -7.89354e-22 
-3.53048e-22 1.99686e-22 7.05224e-23 -6.34531e-23 1.14062e-24 1.43831e-23 -6.76206e-24 4.8173e-25 1.07968e-24 -7.82014e-25 
3.41886e-25 -1.149e-25 3.21601e-26 -7.80173e-27 1.68008e-27 -3.26307e-28 5.78005e-29 -9.41466e-30 1.41887e-30 -1.98817e-31 
2.60035e-32 -3.18484e-33 3.66297e-34 -3.96584e-35 4.05091e-36 -3.9117e-37 3.57749e-38 -3.10407e-39 2.55909e-40 -2.00732e-41 
1.49959e-42 -1.06766e-43 7.24435e-45 -4.67987e-46 2.87019e-47 -1.6608e-48 8.9458e-50 -4.34859e-51 1.74873e-52 -3.79253e-54 
-2.73193e-55 5.31447e-56 -5.87027e-57 5.73738e-58 3.12217e-58 5.05493e-57 6.91445e-56 9.54463e-55 1.27235e-53 1.72024e-52 
2.22002e-51 2.92925e-50 3.62538e-49 4.6387e-48 5.41032e-47 6.62132e-46 6.98841e-45 7.86796e-44 6.52102e-43 5.50851e-42 
-6.50646e-42 -7.46047e-40 -2.526e-38 -4.68851e-37 -9.07956e-36 -1.47036e-34 -2.46935e-33 -3.79505e-32 -5.95529e-31 -8.88659e-30 
6.02679e-28 2.7575e-27 1.24368e-26 5.37854e-26 2.22927e-25 8.84111e-25 3.34928e-24 1.20971e-23 4.15723e-23 1.3562e-22 
4.1893e-22 1.22186e-21 3.35409e-21 8.63413e-21 2.07558e-20 4.63697e-20 9.57277e-20 1.81388e-19 3.12878e-19 4.86287e-19 
6.72108e-19 8.11556e-19 8.34595e-19 7.02041e-19 4.47678e-19 1.76759e-19 8.00698e-22 -4.49284e-20 -1.70909e-20 7.55142e-21 
5.46347e-21 -1.95607e-21 -1.25268e-21 7.60094e-22 9.22943e-23 -2.21637e-22 8.2306e-23 4.74037e-24 -2.03342e-23 1.26346e-23 
-5.21316e-24 1.69674e-24 -4.6545e-25 1.11468e-25 -2.38178e-26 4.60757e-27 -8.15317e-28 1.32955e-28 -2.00926e-29 2.8261e-30 
-3.71248e-31 4.56799e-32 -5.27795e-33 5.73952e-34 -5.88674e-35 5.70601e-36 -5.23694e-37 4.5594e-38 -3.77215e-39 2.97068e-40 
-2.2305e-41 1.59914e-42 -1.09625e-43 7.19473e-45 -4.52552e-46 2.73053e-47 -1.58126e-48 8.79039e-50 -4.68886e-51 2.39603e-52 
-1.16855e-53 5.39284e-55 -2.30748e-56 8.15228e-58 -6.39361e-58 -8.27332e-57 -1.08571e-55 -1.39683e-54 -1.75452e-53 -2.14065e-52 
-2.51264e-51 -2.79486e-50 -2.84909e-49 -2.45712e-48 -1.25197e-47 1.31664e-46 6.13889e-45 1.45146e-43 2.85015e-42 5.10601e-41 
8.6804e-40 1.42308e-38 2.27656e-37 3.57096e-36 5.52063e-35 8.42522e-34 1.27251e-32 1.90268e-31 2.8197e-30 4.14055e-29 
-2.68386e-27 -1.26599e-26 -5.87692e-26 -2.61689e-25 -1.11707e-24 -4.56404e-24 -1.78183e-23 -6.63486e-23 -2.35164e-22 -7.91616e-22 
-2.52457e-21 -7.60645e-21 -2.15845e-20 -5.74812e-20 -1.43075e-19 -3.3129e-19 -7.09679e-19 -1.39724e-18 -2.5083e-18 -4.06548e-18 
-5.87482e-18 -7.44288e-18 -8.0731e-18 -7.22623e-18 -4.99512e-18 -2.27094e-18 -2.49624e-19 4.58319e-19 2.45657e-19 -5.94856e-20 
-7.4613e-20 1.56186e-20 1.89839e-20 -8.17839e-21 -2.54138e-21 3.11639e-21 -8.89831e-22 -2.28576e-22 3.43845e-22 -1.91849e-22 
7.5519e-23 -2.39208e-23 6.45242e-24 -1.52987e-24 3.25295e-25 -6.28698e-26 1.11483e-26 -1.82582e-27 2.77512e-28 -3.92894e-29 
5.19649e-30 -6.43671e-31 7.48348e-32 -8.18334e-33 8.43348e-34 -8.20678e-35 7.55529e-36 -6.59252e-37 5.46218e-38 -4.30498e-39 
3.2331e-40 -2.3176e-41 1.58825e-42 -1.04209e-43 6.55525e-45 -3.95821e-46 2.29659e-47 -1.28147e-48 6.88084e-50 -3.55675e-51 
1.77015e-52 -8.48149e-54 3.91271e-55 -1.7428e-56 9.9713e-58 2.10085e-57 1.4452e-56 -4.91919e-56 -4.68071e-54 -1.27856e-52 
-2.75008e-51 -5.31295e-50 -9.64731e-49 -1.68184e-47 -2.84824e-46 -4.71964e-45 -7.68847e-44 -1.23531e-42 -1.96205e-41 -3.0856e-40 
-4.81016e-39 -7.43873e-38 -1.14175e-36 -1.73972e-35 -2.63187e-34 -3.95274e-33 -5.89252e-32 -8.71675e-31 -1.27911e-29 -1.86114e-28 
1.14382e-26 5.56405e-26 2.65934e-25 1.21957e-24 5.36288e-24 2.25778e-23 9.08539e-23 3.48823e-22 1.27529e-21 4.4301e-21 
1.45869e-20 4.54033e-20 1.33186e-19 3.66925e-19 9.45621e-19 2.26927e-18 5.04373e-18 1.03168e-17 1.92718e-17 3.25654e-17 
4.91822e-17 6.53368e-17 7.46697e-17 7.09767e-17 5.29203e-17 2.71463e-17 5.37109e-18 -4.17592e-18 -3.14936e-18 2.95865e-19 
9.20541e-19 -7.51222e-20 -2.56657e-19 7.64122e-20 4.73929e-20 -4.02509e-20 8.05233e-21 5.19957e-21 -5.34013e-21 2.74439e-21 
-1.03807e-21 3.21188e-22 -8.5444e-23 2.01189e-23 -4.27167e-24 8.27956e-25 -1.47713e-25 2.43924e-26 -3.74288e-27 5.3521e-28 
-7.14856e-29 8.93675e-30 -1.04772e-30 1.15409e-31 -1.19669e-32 1.17028e-33 -1.08141e-34 9.4603e-36 -7.84958e-37 6.18911e-38 
-4.64569e-39 3.32583e-40 -2.27482e-41 1.48911e-42 -9.34414e-44 5.62902e-45 -3.25975e-46 1.81674e-47 -9.75338e-49 5.04737e-50 
-2.51884e-51 1.21226e-52 -5.62303e-54 2.50401e-55 -9.50192e-57 1.80102e-56 2.97431e-55 4.99308e-54 8.30629e-53 1.37067e-51 
2.24493e-50 3.65125e-49 5.89971e-48 9.4736e-47 1.51218e-45 2.39979e-44 3.78674e-43 5.94152e-42 9.26949e-41 1.43781e-39 
2.21706e-38 3.3978e-37 5.17445e-36 7.82809e-35 1.17608e-33 1.75413e-32 2.5963e-31 3.81188e-30 5.549e-29 8.00509e-28 
-4.66468e-26 -2.34024e-25 -1.15183e-24 -5.44106e-24 -2.46507e-23 -1.06948e-22 -4.43628e-22 -1.75632e-21 -6.62357e-21 -2.37445e-20 
-8.0722e-20 -2.59558e-19 -7.87047e-19 -2.24299e-18 -5.9846e-18 -1.48829e-17 -3.43174e-17 -7.29168e-17 -1.41707e-16 -2.49585e-16 
-3.93807e-16 -5.48272e-16 -6.59583e-16 -6.64638e-16 -5.32383e-16 -3.03797e-16 -8.36549e-17 3.2514e-17 3.66228e-17 1.18951e-18 
-1.03306e-17 -4.39617e-19 3.14655e-18 -5.69929e-19 -7.35755e-19 4.77915e-19 -5.03049e-20 -9.32553e-20 7.70213e-20 -3.70562e-20 
1.35429e-20 -4.1072e-21 1.08117e-21 -2.538e-22 5.4052e-23 -1.05585e-23 1.90472e-24 -3.18659e-25 4.95759e-26 -7.18663e-27 
9.72372e-28 -1.23002e-28 1.45717e-29 -1.6196e-30 1.69202e-31 -1.66469e-32 1.54534e-33 -1.35616e-34 1.12729e-35 -8.8925e-37 
6.66975e-38 -4.76561e-39 3.24992e-40 -2.11925e-41 1.32387e-42 -7.9364e-44 4.57343e-45 -2.53719e-46 1.35684e-47 -7.00205e-49 
3.48964e-50 -1.68043e-51 7.82321e-53 -3.52504e-54 1.4538e-55 -9.25265e-56 -1.47159e-54 -2.40982e-53 -3.93393e-52 -6.39336e-51 
-1.03438e-49 -1.6659e-48 -2.67049e-47 -4.26048e-46 -6.76384e-45 -1.06839e-43 -1.67879e-42 -2.62365e-41 -4.07724e-40 -6.29908e-39 
-9.67218e-38 -1.47566e-36 -2.2363e-35 -3.3652e-34 -5.02659e-33 -7.44988e-32 -1.09511e-30 -1.59587e-29 -2.30443e-28 -3.2955e-27 
1.81726e-25 9.40429e-25 4.76749e-24 2.32022e-23 1.08317e-22 4.84348e-22 2.07124e-21 8.45609e-21 3.28975e-20 1.21705e-19 
4.27184e-19 1.41894e-18 4.44736e-18 1.31101e-17 3.62115e-17 9.33114e-17 2.23187e-16 4.92536e-16 9.95645e-16 1.82735e-15 
3.01131e-15 4.39152e-15 5.55678e-15 5.92706e-15 5.08385e-15 3.19399e-15 1.10654e-15 -1.89729e-16 -3.88717e-16 -5.94368e-17 
1.05406e-16 1.87066e-17 -3.52062e-17 2.32573e-18 1.00856e-17 -5.19493e-18 -5.85544e-20 1.45552e-18 -1.03796e-18 4.72693e-19 
-1.67663e-19 5.00146e-20 -1.30811e-20 3.07698e-21 -6.61182e-22 1.30969e-22 -2.40309e-23 4.09432e-24 -6.48629e-25 9.56496e-26 
-1.31451e-26 1.68601e-27 -2.0216e-28 2.2702e-29 -2.39226e-30 2.3702e-31 -2.21239e-32 1.94936e-33 -1.62453e-34 1.28294e-35 
-9.61973e-37 6.86162e-38 -4.66481e-39 3.02849e-40 -1.88127e-41 1.12036e-42 -6.40897e-44 3.52818e-45 -1.87243e-46 9.59462e-48 
-4.75301e-49 2.27834e-50 -1.05725e-51 4.76659e-53 -2.20949e-54 5.6659e-55 6.17526e-54 1.02175e-52 1.66831e-51 2.71213e-50 
4.38841e-49 7.0667e-48 1.13235e-46 1.80524e-45 2.86292e-44 4.51567e-43 7.08254e-42 1.10437e-40 1.71159e-39 2.6359e-38 
4.0326e-37 6.12684e-36 9.2415e-35 1.38341e-33 2.05446e-32 3.02555e-31 4.4165e-30 6.38723e-29 9.14705e-28 1.2964e-26 
-6.75119e-25 -3.60445e-24 -1.88255e-23 -9.44093e-23 -4.54236e-22 -2.09374e-21 -9.23152e-21 -3.88691e-20 -1.56e-19 -5.95604e-19 
-2.15842e-18 -7.40588e-18 -2.39917e-17 -7.3149e-17 -2.09138e-16 -5.58346e-16 -1.3851e-15 -3.17421e-15 -6.67305e-15 -1.27594e-14 
-2.1953e-14 -3.352e-14 -4.45797e-14 -5.02689e-14 -4.60465e-14 -3.16032e-14 -1.30703e-14 3.01231e-16 3.76463e-15 1.05251e-15 
-9.70622e-16 -3.31619e-16 3.59671e-16 2.16224e-17 -1.25047e-16 5.11542e-17 8.74951e-18 -2.04997e-17 1.31124e-17 -5.69684e-18 
1.96881e-18 -5.80005e-19 1.51529e-19 -3.59555e-20 7.85329e-21 -1.58881e-21 2.98355e-22 -5.202e-23 8.42138e-24 -1.26634e-24 
1.77051e-25 -2.30503e-26 2.79953e-27 -3.17842e-28 3.3805e-29 -3.37538e-30 3.17064e-31 -2.80764e-32 2.34835e-33 -1.85886e-34 
1.3951e-35 -9.94587e-37 6.74786e-38 -4.36507e-39 2.69745e-40 -1.59557e-41 9.05244e-43 -4.9364e-44 2.59275e-45 -1.31432e-46 
6.44247e-48 -3.0586e-49 1.40735e-50 -6.21097e-52 2.22108e-53 -2.47106e-55 -2.5885e-53 -4.0984e-52 -6.71319e-51 -1.09313e-49 
-1.77093e-48 -2.85396e-47 -4.5746e-46 -7.29206e-45 -1.15575e-43 -1.821e-42 -2.85167e-41 -4.43747e-40 -6.85978e-39 -1.05319e-37 
-1.60547e-36 -2.42918e-35 -3.64693e-34 -5.43061e-33 -8.01769e-32 -1.17312e-30 -1.70028e-29 -2.43988e-28 -3.46449e-27 -4.86488e-26 
2.38713e-24 1.31517e-23 7.07865e-23 3.65892e-22 1.81471e-21 8.62391e-21 3.92094e-20 1.70278e-19 7.05069e-19 2.7782e-18 
1.03947e-17 3.68405e-17 1.23346e-16 3.88928e-16 1.15086e-15 3.18283e-15 8.18777e-15 1.94816e-14 4.25837e-14 8.48065e-14 
1.52298e-13 2.43374e-13 3.39981e-13 4.04842e-13 3.95139e-13 2.94482e-13 1.40877e-13 1.28781e-14 -3.30525e-14 -1.41182e-14 
7.92618e-15 4.51646e-15 -3.33931e-15 -7.12204e-16 1.41801e-15 -4.46246e-16 -1.88069e-16 2.64939e-16 -1.55516e-16 6.48325e-17 
-2.19149e-17 6.40824e-18 -1.6843e-18 4.06654e-19 -9.10707e-20 1.89578e-20 -3.66326e-21 6.5587e-22 -1.08699e-22 1.668e-23 
-2.37284e-24 3.1352e-25 -3.85624e-26 4.42599e-27 -4.75175e-28 4.78314e-29 -4.52442e-30 4.03014e-31 -3.38731e-32 2.69145e-33 
-2.02535e-34 1.44596e-35 -9.81065e-37 6.33688e-38 -3.9035e-39 2.29738e-40 -1.29435e-41 6.99534e-43 -3.63462e-44 1.8197e-45 
-8.79931e-47 4.11943e-48 -1.87422e-49 8.49029e-51 -4.71153e-52 6.97784e-53 7.61597e-53 1.57246e-51 2.56957e-50 4.19281e-49 
6.80281e-48 1.09746e-46 1.7601e-45 2.80587e-44 4.4453e-43 6.99764e-42 1.09427e-40 1.6995e-39 2.62076e-38 4.01164e-37 
6.0936e-36 9.18203e-35 1.37202e-33 2.03223e-32 2.98257e-31 4.33524e-30 6.23771e-29 8.87951e-28 1.24981e-26 1.73825e-25 
-8.01657e-24 -4.55891e-23 -2.52945e-22 -1.34797e-21 -6.89331e-21 -3.37806e-20 -1.58402e-19 -7.09605e-19 -3.03166e-18 -1.23289e-17 
-4.76256e-17 -1.74344e-16 -6.0323e-16 -1.96686e-15 -6.02271e-15 -1.72514e-14 -4.60114e-14 -1.13641e-13 -2.58217e-13 -5.35476e-13 
-1.0034e-12 -1.67746e-12 -2.45997e-12 -3.09037e-12 -3.2079e-12 -2.58365e-12 -1.40047e-12 -2.61992e-13 2.59096e-13 1.60954e-13 
-5.51785e-14 -5.24917e-14 2.78615e-14 1.17199e-14 -1.47777e-14 3.27551e-15 2.95097e-15 -3.16894e-15 1.73211e-15 -6.95999e-16 
2.31097e-16 -6.75329e-17 1.80278e-17 -4.4754e-18 1.03707e-18 -2.23529e-19 4.45941e-20 -8.20725e-21 1.39201e-21 -2.17751e-22 
3.14778e-23 -4.21596e-24 5.24644e-25 -6.08337e-26 6.59059e-27 -6.68838e-28 6.37337e-29 -5.71507e-30 4.83233e-31 -3.85998e-32 
2.91783e-33 -2.09071e-34 1.42221e-35 -9.19891e-37 5.66602e-38 -3.32871e-39 1.86834e-40 -1.00371e-41 5.17121e-43 -2.56078e-44 
1.22178e-45 -5.62964e-47 2.50318e-48 -1.03444e-49 2.19518e-51 7.01097e-52 -6.44572e-52 -5.58483e-51 -9.34584e-50 -1.52786e-48 
-2.48334e-47 -4.01133e-46 -6.43838e-45 -1.02666e-43 -1.62614e-42 -2.55789e-41 -3.99484e-40 -6.19304e-39 -9.52751e-38 -1.45411e-36 
-2.201e-35 -3.3029e-34 -4.91201e-33 -7.23656e-32 -1.05565e-30 -1.52408e-29 -2.17652e-28 -3.07279e-27 -4.28586e-26 -5.9016e-25 
2.55094e-23 1.4979e-22 8.57044e-22 4.71034e-21 2.48436e-20 1.25575e-19 6.07422e-19 2.80738e-18 1.23765e-17 5.19494e-17 
2.07187e-16 7.83356e-16 2.80072e-15 9.44154e-15 2.99123e-14 8.87226e-14 2.45279e-13 6.28682e-13 1.48455e-12 3.20475e-12 
6.26407e-12 1.09513e-11 1.68504e-11 2.23137e-11 2.45942e-11 2.13251e-11 1.29104e-11 3.50713e-12 -1.75415e-12 -1.61971e-12 
2.93491e-13 5.39552e-13 -2.04167e-13 -1.51488e-13 1.41666e-13 -1.71902e-14 -3.92279e-14 3.52302e-14 -1.81042e-14 7.03815e-15 
-2.30798e-15 6.8037e-16 -1.86727e-16 4.82132e-17 -1.16508e-17 2.60934e-18 -5.37582e-19 1.01541e-19 -1.75835e-20 2.79711e-21 
-4.09991e-22 5.55626e-23 -6.98599e-24 8.17586e-25 -8.93345e-26 9.13877e-27 -8.77463e-28 7.92548e-29 -6.74783e-30 5.42559e-31 
-4.12672e-32 2.97377e-33 -2.03319e-34 1.32071e-35 -8.16138e-37 4.8042e-38 -2.69754e-39 1.44688e-40 -7.42532e-42 3.65262e-43 
-1.72596e-44 7.85705e-46 -3.47516e-47 1.58277e-48 -1.05592e-49 1.81242e-50 -3.8229e-51 2.09251e-50 3.21635e-49 5.27913e-48 
8.59779e-47 1.39091e-45 2.23473e-44 3.56521e-43 5.64672e-42 8.87695e-41 1.3848e-39 2.14313e-38 3.28951e-37 5.00609e-36 
7.55098e-35 1.12846e-33 1.67021e-32 2.44718e-31 3.54785e-30 5.08672e-29 7.20832e-28 1.00897e-26 1.39402e-25 1.89962e-24 
-7.67151e-23 -4.65312e-22 -2.74667e-21 -1.55746e-20 -8.47504e-20 -4.41985e-19 -2.20595e-18 -1.05207e-17 -4.7867e-17 -2.0739e-16 
-8.5397e-16 -3.33465e-15 -1.23183e-14 -4.29276e-14 -1.40682e-13 -4.31981e-13 -1.23752e-12 -3.29073e-12 -8.07293e-12 -1.81355e-11 
-3.69631e-11 -6.75515e-11 -1.09e-10 -1.52033e-10 -1.77687e-10 -1.65352e-10 -1.10645e-10 -3.86751e-11 9.41217e-12 1.45958e-11 
-6.37433e-13 -4.97457e-12 1.2479e-12 1.68559e-12 -1.24663e-12 4.98087e-15 4.63264e-13 -3.64672e-13 1.77298e-13 -6.69262e-14 
2.18373e-14 -6.57763e-15 1.88296e-15 -5.1105e-16 1.29363e-16 -3.00936e-17 6.38418e-18 -1.23303e-18 2.17221e-19 -3.50314e-20 
5.19355e-21 -7.10821e-22 9.01731e-23 -1.06414e-23 1.17206e-24 -1.20838e-25 1.1692e-26 -1.06417e-27 9.12986e-29 -7.39679e-30 
5.66842e-31 -4.11492e-32 2.8335e-33 -1.85302e-34 1.15221e-35 -6.81953e-37 3.84607e-38 -2.06921e-39 1.06324e-40 -5.22498e-42 
2.45928e-43 -1.10986e-44 4.77312e-46 -1.80461e-47 4.07498e-50 2.17925e-49 -7.57994e-50 -4.37913e-50 -1.05458e-48 -1.72566e-47 
-2.81721e-46 -4.56569e-45 -7.34467e-44 -1.17256e-42 -1.85742e-41 -2.91874e-40 -4.54867e-39 -7.0284e-38 -1.07642e-36 -1.63351e-35 
-2.45535e-34 -3.6542e-33 -5.38231e-32 -7.8422e-31 -1.12973e-29 -1.60819e-28 -2.26072e-27 -3.13623e-26 -4.29029e-25 -5.7825e-24 
2.17398e-22 1.36273e-21 8.30293e-21 4.85956e-20 2.72939e-19 1.46915e-18 7.56814e-18 3.7255e-17 1.74964e-16 7.82564e-16 
3.32711e-15 1.34175e-14 5.12051e-14 1.84432e-13 6.2507e-13 1.9864e-12 5.89476e-12 1.6256e-11 4.14148e-11 9.67791e-11 
2.05599e-10 3.92607e-10 6.64013e-10 9.74855e-10 1.2067e-09 1.20209e-09 8.8213e-10 3.73569e-10 -2.73306e-11 -1.18193e-10 
-1.03714e-11 4.13145e-11 -5.42761e-12 -1.66939e-11 1.00158e-11 1.44841e-12 -4.95965e-12 3.51452e-12 -1.62305e-12 5.97344e-13 
-1.96035e-13 6.13582e-14 -1.85984e-14 5.34322e-15 -1.41626e-15 3.40796e-16 -7.40673e-17 1.45585e-17 -2.59906e-18 4.2364e-19 
-6.33791e-20 8.74572e-21 -1.11807e-21 1.32943e-22 -1.47533e-23 1.53271e-24 -1.49462e-25 1.37127e-26 -1.18612e-27 9.69045e-29 
-7.48973e-30 5.48425e-31 -3.80935e-32 2.51283e-33 -1.57581e-34 9.40333e-36 -5.34424e-37 2.89527e-38 -1.49648e-39 7.38646e-41 
-3.48573e-42 1.57652e-43 -6.9192e-45 3.21862e-46 -2.40246e-47 4.2254e-48 -1.03904e-48 4.553e-49 3.16834e-48 5.32694e-47 
8.71634e-46 1.41551e-44 2.2805e-43 3.64416e-42 5.7746e-41 9.07194e-40 1.41259e-38 2.17945e-37 3.33082e-36 5.04054e-35 
7.5502e-34 1.11896e-32 1.63999e-31 2.37585e-30 3.40021e-29 4.80433e-28 6.69737e-27 9.2043e-26 1.24602e-24 1.65997e-23 
-5.78598e-22 -3.75036e-21 -2.35998e-20 -1.42649e-19 -8.27361e-19 -4.59857e-18 -2.44596e-17 -1.24317e-16 -6.02804e-16 -2.78383e-15 
-1.22213e-14 -5.09002e-14 -2.0066e-13 -7.46862e-13 -2.61699e-12 -8.60397e-12 -2.64383e-11 -7.55767e-11 -1.9986e-10 -4.85587e-10 
-1.07472e-09 -2.14334e-09 -3.79761e-09 -5.86458e-09 -7.68046e-09 -8.17321e-09 -6.53802e-09 -3.23845e-09 -1.81457e-10 8.56584e-10 
1.95289e-10 -3.08439e-10 2.20807e-12 1.49363e-10 -7.27481e-11 -2.54166e-11 4.85932e-11 -3.1491e-11 1.38447e-11 -4.9959e-12 
1.67509e-12 -5.56017e-13 1.80678e-13 -5.50051e-14 1.51871e-14 -3.75506e-15 8.31098e-16 -1.65466e-16 2.98286e-17 -4.90123e-18 
7.38548e-19 -1.02614e-19 1.32081e-20 -1.58151e-21 1.76784e-22 -1.85055e-23 1.81893e-24 -1.68271e-25 1.46816e-26 -1.21031e-27 
9.44209e-29 -6.98059e-30 4.89672e-31 -3.26273e-32 2.06698e-33 -1.24608e-34 7.15384e-36 -3.91403e-37 2.04214e-38 -1.01671e-39 
4.83257e-41 -2.19109e-42 9.35539e-44 -3.33595e-45 -3.56778e-47 4.79943e-47 -1.36381e-47 2.70111e-48 -1.00688e-47 -1.546e-46 
-2.54015e-45 -4.13474e-44 -6.67309e-43 -1.06758e-41 -1.69264e-40 -2.65895e-39 -4.1373e-38 -6.37456e-37 -9.7221e-36 -1.46719e-34 
-2.19001e-33 -3.23181e-32 -4.71267e-31 -6.7869e-30 -9.64702e-29 -1.35251e-27 -1.86889e-26 -2.5431e-25 -3.40465e-24 -4.47971e-23 
1.44073e-21 9.66317e-21 6.28456e-20 3.92564e-19 2.35265e-18 1.35099e-17 7.42322e-17 3.8971e-16 1.95171e-15 9.30861e-15 
4.22044e-14 1.81541e-13 7.39246e-13 2.84279e-12 1.02956e-11 3.50052e-11 1.11324e-10 3.29693e-10 9.0445e-10 2.28336e-09 
5.26174e-09 1.0953e-08 2.03188e-08 3.29839e-08 4.56601e-08 5.18129e-08 4.49687e-08 2.547e-08 4.15734e-09 -5.48739e-09 
-2.17828e-09 2.05324e-09 2.80371e-10 -1.21557e-09 4.69209e-10 3.10578e-10 -4.37515e-10 2.61627e-10 -1.096e-10 3.91123e-11 
-1.36996e-11 4.92672e-12 -1.7265e-12 5.53918e-13 -1.57965e-13 3.98317e-14 -8.92665e-15 1.79277e-15 -3.25393e-16 5.37876e-17 
-8.15196e-18 1.13933e-18 -1.47565e-19 1.77867e-20 -2.00243e-21 2.11216e-22 -2.093e-23 1.95303e-24 -1.7196e-25 1.43121e-26 
-1.12775e-27 8.4247e-29 -5.97373e-30 4.02481e-31 -2.57901e-32 1.57296e-33 -9.13791e-35 5.05945e-36 -2.6713e-37 1.34564e-38 
-6.47173e-40 2.9792e-41 -1.3343e-42 6.45077e-44 -5.00177e-45 8.15367e-46 -1.7827e-46 4.05652e-47 1.7351e-47 4.238e-46 
6.95304e-45 1.13483e-43 1.83523e-42 2.94016e-41 4.66514e-40 7.32918e-39 1.13975e-37 1.75383e-36 2.66948e-35 4.01746e-34 
5.97543e-33 8.77943e-32 1.27352e-30 1.82275e-29 2.57242e-28 3.57703e-27 4.89677e-26 6.59324e-25 8.72232e-24 1.13238e-22 
-3.34144e-21 -2.32101e-20 -1.56139e-19 -1.0087e-18 -6.25101e-18 -3.71112e-17 -2.10779e-16 -1.14361e-15 -5.91807e-15 -2.91614e-14 
-1.3658e-13 -6.06842e-13 -2.55246e-12 -1.01398e-11 -3.79444e-11 -1.33361e-10 -4.38692e-10 -1.3451e-09 -3.82513e-09 -1.00265e-08 
-2.40381e-08 -5.21906e-08 -1.01299e-07 -1.72735e-07 -2.52534e-07 -3.05116e-07 -2.86247e-07 -1.82547e-07 -4.70741e-08 3.02524e-08 
1.92131e-08 -1.19877e-08 -3.89162e-09 9.02317e-09 -2.59282e-09 -3.14846e-09 3.62325e-09 -2.00722e-09 8.01231e-10 -2.86746e-10 
1.08068e-10 -4.28485e-11 1.61432e-11 -5.4014e-12 1.57577e-12 -4.02378e-13 9.08702e-14 -1.83488e-14 3.34561e-15 -5.55501e-16 
8.45904e-17 -1.18844e-17 1.54825e-18 -1.8783e-19 2.12973e-20 -2.26398e-21 2.2624e-22 -2.13022e-23 1.8937e-24 -1.59216e-25 
1.26801e-26 -9.5784e-28 6.87087e-29 -4.68514e-30 3.03957e-31 -1.87766e-32 1.10516e-33 -6.20134e-35 3.31895e-36 -1.69483e-37 
8.25765e-39 -3.82965e-40 1.65915e-41 -5.80496e-43 -9.02935e-45 8.21815e-45 -2.06202e-45 4.34152e-46 -1.50312e-46 -1.06295e-45 
-1.78287e-44 -2.91791e-43 -4.72965e-42 -7.58966e-41 -1.20541e-39 -1.89427e-38 -2.94443e-37 -4.52539e-36 -6.8744e-35 -1.03169e-33 
-1.52891e-32 -2.23619e-31 -3.22601e-30 -4.5874e-29 -6.42523e-28 -8.85674e-27 -1.20038e-25 -1.59796e-24 -2.08686e-23 -2.67001e-22 
7.18043e-21 5.17053e-20 3.6015e-19 2.40858e-18 1.54481e-17 9.48975e-17 5.57562e-16 3.1286e-15 1.67396e-14 8.52615e-14 
4.12672e-13 1.89441e-12 8.23129e-12 3.37765e-11 1.30568e-10 4.7415e-10 1.61231e-09 5.1142e-09 1.50621e-08 4.09524e-08 
1.02047e-07 2.30873e-07 4.68442e-07 8.38406e-07 1.29336e-06 1.66165e-06 1.68008e-06 1.19316e-06 4.1203e-07 -1.34798e-07 
-1.43305e-07 5.93808e-08 3.64983e-08 -6.11073e-08 1.12185e-08 2.7878e-08 -2.75608e-08 1.41412e-08 -5.37694e-09 1.97459e-09 
-8.29285e-10 3.65218e-10 -1.46227e-10 5.03856e-11 -1.49025e-11 3.83113e-12 -8.68517e-13 1.75877e-13 -3.21595e-14 5.35726e-15 
-8.19025e-16 1.15616e-16 -1.51463e-17 1.84936e-18 -2.11219e-19 2.26349e-20 -2.28192e-21 2.16914e-22 -1.94801e-23 1.6556e-24 
-1.33359e-25 1.01944e-26 -7.40396e-28 5.11401e-29 -3.36226e-30 2.10571e-31 -1.25702e-32 7.15652e-34 -3.88755e-35 2.01583e-36 
-9.98552e-38 4.74189e-39 -2.20416e-40 1.11985e-41 -8.76406e-43 1.28285e-43 -2.4473e-44 4.72492e-45 -7.0978e-46 2.7199e-45 
4.26339e-44 7.00545e-43 1.13844e-41 1.8303e-40 2.91033e-39 4.57543e-38 7.1095e-37 1.09143e-35 1.65467e-34 2.47618e-33 
3.65574e-32 5.3215e-31 7.6326e-30 1.07788e-28 1.49752e-27 2.04491e-26 2.74168e-25 3.60481e-24 4.64165e-23 5.84383e-22 
-1.42066e-20 -1.06182e-19 -7.66711e-19 -5.31418e-18 -3.53145e-17 -2.24702e-16 -1.36704e-15 -7.94023e-15 -4.39613e-14 -2.31613e-13 
-1.15915e-12 -5.50014e-12 -2.46938e-11 -1.04672e-10 -4.17904e-10 -1.56737e-09 -5.50574e-09 -1.80502e-08 -5.49963e-08 -1.54911e-07 
-4.00694e-07 -9.4347e-07 -1.9989e-06 -3.75125e-06 -6.1004e-06 -8.32414e-06 -9.04919e-06 -7.09938e-06 -3.0453e-06 3.92347e-07 
9.22908e-07 -2.30485e-07 -2.76255e-07 3.77032e-07 -2.53965e-08 -2.20003e-07 1.91923e-07 -9.07921e-08 3.28943e-08 -1.28617e-08 
6.22807e-09 -3.02647e-09 1.26645e-09 -4.4397e-10 1.32133e-10 -3.40394e-11 7.723e-12 -1.5652e-12 2.86602e-13 -4.78518e-14 
7.33965e-15 -1.04058e-15 1.37061e-16 -1.68435e-17 1.93815e-18 -2.09454e-19 2.13137e-20 -2.04669e-21 1.85821e-22 -1.59771e-23 
1.30282e-24 -1.00877e-25 7.42498e-27 -5.20006e-28 3.46811e-29 -2.20427e-30 1.33596e-31 -7.72528e-33 4.26392e-34 -2.24693e-35 
1.13001e-36 -5.40209e-38 2.3945e-39 -8.33183e-41 -1.49223e-42 1.11415e-42 -2.49819e-43 4.71307e-44 -8.52806e-45 -4.36418e-45 
-9.51416e-44 -1.56462e-42 -2.54998e-41 -4.10834e-40 -6.54143e-39 -1.02898e-37 -1.59844e-36 -2.45111e-35 -3.7085e-34 -5.53315e-33 
-8.13639e-32 -1.1784e-30 -1.67971e-29 -2.35451e-28 -3.24256e-27 -4.38266e-26 -5.80668e-25 -7.53108e-24 -9.54619e-23 -1.1804e-21 
2.568e-20 1.9952e-19 1.49569e-18 1.07593e-17 7.41802e-17 4.89524e-16 3.08758e-15 1.85849e-14 1.06586e-13 5.81421e-13 
3.01126e-12 1.47788e-11 6.85933e-11 3.00424e-10 1.23878e-09 4.79697e-09 1.73955e-08 5.88865e-08 1.85374e-07 5.40115e-07 
1.44779e-06 3.54193e-06 7.82371e-06 1.53748e-05 2.6328e-05 3.81121e-05 4.44602e-05 3.83034e-05 1.95773e-05 3.54948e-07 
-5.144e-06 5.14144e-07 1.76957e-06 -2.11391e-06 -1.47142e-07 1.55971e-06 -1.21707e-06 5.25722e-07 -1.8205e-07 8.01766e-08 
-4.57524e-08 2.40591e-08 -1.0339e-08 3.64967e-09 -1.08648e-09 2.79429e-10 -6.3287e-11 1.28125e-11 -2.346e-12 3.92158e-13 
-6.02998e-14 8.58176e-15 -1.1362e-15 1.40533e-16 -1.62961e-17 1.77684e-18 -1.82622e-19 1.77304e-20 -1.62901e-21 1.41853e-22 
-1.17232e-23 9.20563e-25 -6.87544e-26 4.88851e-27 -3.31149e-28 2.13865e-29 -1.31761e-30 7.74805e-32 -4.35067e-33 2.33401e-34 
-1.19773e-35 5.9109e-37 -2.88084e-38 1.55311e-39 -1.22813e-40 1.61735e-41 -2.68629e-42 4.54418e-43 -7.28574e-44 2.2952e-44 
1.94051e-43 3.23783e-42 5.29297e-41 8.54762e-40 1.36305e-38 2.14553e-37 3.3322e-36 5.10382e-35 7.7055e-34 1.14603e-32 
1.678e-31 2.417e-30 3.42206e-29 4.75797e-28 6.48959e-27 8.6726e-26 1.13399e-24 1.44843e-23 1.80376e-22 2.18512e-21 
-4.20001e-20 -3.3986e-19 -2.64985e-18 -1.98181e-17 -1.41999e-16 -9.73429e-16 -6.37508e-15 -3.9825e-14 -2.36916e-13 -1.3398e-12 
-7.18921e-12 -3.65311e-11 -1.75421e-10 -7.94305e-10 -3.38357e-09 -1.35263e-08 -5.06115e-08 -1.76731e-07 -5.73982e-07 -1.72673e-06 
-4.78633e-06 -1.21388e-05 -2.7895e-05 -5.72962e-05 -0.000103161 -0.000158229 -0.000197758 -0.00018627 -0.000110582 -1.53965e-05 
2.45577e-05 1.42494e-06 -9.72069e-06 1.07319e-05 2.54693e-06 -9.94942e-06 6.97609e-06 -2.70505e-06 9.04898e-07 -4.85182e-07 
3.25666e-07 -1.80495e-07 7.84272e-08 -2.76493e-08 8.1933e-09 -2.0967e-09 4.72821e-10 -9.54158e-11 1.74384e-11 -2.914e-12 
4.48636e-13 -6.40372e-14 8.51774e-15 -1.06021e-15 1.23921e-16 -1.36401e-17 1.41724e-18 -1.39277e-19 1.2967e-20 -1.14534e-21 
9.6092e-23 -7.6656e-24 5.81977e-25 -4.20838e-26 2.90056e-27 -1.9067e-28 1.19607e-29 -7.16345e-31 4.09771e-32 -2.23906e-33 
1.1675e-34 -5.77196e-36 2.61702e-37 -8.94283e-39 -2.08468e-40 1.19454e-40 -2.38795e-41 4.00265e-42 -6.17944e-43 6.70646e-44 
-3.83992e-43 -6.17587e-42 -1.01334e-40 -1.6406e-39 -2.62054e-38 -4.12795e-37 -6.40962e-36 -9.80521e-35 -1.47691e-33 -2.18898e-32 
-3.19007e-31 -4.56739e-30 -6.41859e-29 -8.84403e-28 -1.19335e-26 -1.57463e-25 -2.02845e-24 -2.54615e-23 -3.10694e-22 -3.67528e-21 
6.13727e-20 5.18519e-19 4.21477e-18 3.28461e-17 2.45108e-16 1.74905e-15 1.19172e-14 7.7409e-14 4.78532e-13 2.81027e-12 
1.5648e-11 8.24432e-11 4.10104e-10 1.92171e-09 8.46255e-09 3.49348e-08 1.34843e-07 4.8531e-07 1.62374e-06 5.0327e-06 
1.4387e-05 3.77115e-05 8.98833e-05 0.000192442 0.000363528 0.000589874 0.000788727 0.000809653 0.000549168 0.00013552 
-9.78381e-05 -2.51379e-05 4.56527e-05 -4.912e-05 -2.20094e-05 5.69602e-05 -3.57725e-05 1.20923e-05 -4.02518e-06 2.87868e-06 
-2.20755e-06 1.25588e-06 -5.44929e-07 1.90601e-07 -5.5973e-08 1.42011e-08 -3.1782e-09 6.37339e-10 -1.1593e-10 1.93147e-11 
-2.97075e-12 4.24534e-13 -5.66623e-14 7.09337e-15 -8.35739e-16 9.29268e-17 -9.77272e-18 9.73773e-19 -9.20625e-20 8.26786e-21 
-7.06007e-22 5.73706e-23 -4.43965e-24 3.27393e-25 -2.30201e-26 1.54418e-27 -9.88685e-29 6.04493e-30 -3.53108e-31 1.97212e-32 
-1.05537e-33 5.45789e-35 -2.82306e-36 1.63826e-37 -1.32665e-38 1.59477e-39 -2.31225e-40 3.42258e-41 -4.87857e-42 6.998e-43 
5.62643e-43 1.08209e-41 1.77975e-40 2.88927e-39 4.62316e-38 7.28805e-37 1.1313e-35 1.72818e-34 2.59629e-33 3.83313e-32 
5.55682e-31 7.90241e-30 1.10124e-28 1.50196e-27 2.00197e-26 2.60347e-25 3.29672e-24 4.05518e-23 4.83149e-22 5.55562e-21 
-7.87618e-20 -6.97152e-19 -5.92651e-18 -4.82701e-17 -3.76212e-16 -2.80203e-15 -1.99141e-14 -1.34833e-13 -8.68208e-13 -5.30681e-12 
-3.0729e-11 -1.68203e-10 -8.68348e-10 -4.21772e-09 -1.92259e-08 -8.20317e-08 -3.26736e-07 -1.21155e-06 -4.17057e-06 -1.32879e-05 
-3.90496e-05 -0.000105369 -0.000259354 -0.000576441 -0.00113868 -0.00195028 -0.00278583 -0.00310992 -0.00238438 -0.00082949 
0.000306715 0.000177778 -0.000180184 0.000201671 0.000144446 -0.000290903 0.000161782 -4.51799e-05 1.61551e-05 -1.66887e-05 
1.3943e-05 -7.96344e-06 3.41684e-06 -1.17862e-06 3.41304e-07 -8.54326e-08 1.88786e-08 -3.74213e-09 6.73825e-10 -1.11349e-10 
1.70281e-11 -2.42648e-12 3.23997e-13 -4.07188e-14 4.83331e-15 -5.43284e-16 5.79392e-17 -5.87049e-18 5.65657e-19 -5.18692e-20 
4.52867e-21 -3.76639e-22 2.98499e-23 -2.25522e-24 1.62491e-25 -1.11696e-26 7.32797e-28 -4.59017e-29 2.74589e-30 -1.56832e-31 
8.53225e-33 -4.37351e-34 2.01436e-35 -6.43942e-37 -2.56829e-38 1.00107e-38 -1.76121e-39 2.6122e-40 -3.55901e-41 4.49367e-42 
-1.58023e-42 -1.7181e-41 -2.84999e-40 -4.6397e-39 -7.4374e-38 -1.17327e-36 -1.8204e-35 -2.77611e-34 -4.15799e-33 -6.11141e-32 
-8.80629e-31 -1.24268e-29 -1.7151e-28 -2.31177e-27 -3.03793e-26 -3.88418e-25 -4.81994e-24 -5.78761e-23 -6.69947e-22 -7.43999e-21 
8.658e-20 8.0698e-19 7.20761e-18 6.16156e-17 5.03564e-16 3.92933e-15 2.92317e-14 2.06999e-13 1.39284e-12 8.88829e-12 
5.36803e-11 3.06132e-10 1.64453e-09 8.30011e-09 3.92497e-08 1.734e-07 7.13578e-07 2.72729e-06 9.65303e-06 3.15524e-05 
9.49816e-05 0.000262506 0.000663202 0.00152061 0.00312405 0.00562697 0.00857048 0.0103911 0.00894763 0.00400539 
-0.000635055 -0.000901056 0.000574276 -0.000738477 -0.000780257 0.00131275 -0.000632167 0.000129886 -6.06145e-05 9.25938e-05 
-8.01571e-05 4.51857e-05 -1.90113e-05 6.424e-06 -1.82145e-06 4.46178e-07 -9.64366e-08 1.86939e-08 -3.29338e-09 5.33245e-10 
-8.01164e-11 1.12615e-11 -1.49117e-12 1.87015e-13 -2.23036e-14 2.536e-15 -2.75292e-16 2.85433e-17 -2.82627e-18 2.6713e-19 
-2.40877e-20 2.07125e-21 -1.69786e-22 1.3266e-23 -9.8803e-25 7.01562e-26 -4.75071e-27 3.06924e-28 -1.89308e-29 1.11635e-30 
-6.32152e-32 3.48733e-33 -1.96112e-34 1.25722e-35 -1.06348e-36 1.18852e-37 -1.51323e-38 1.95451e-39 -2.44325e-40 2.92438e-41 
-1.83621e-42 2.52564e-41 4.1307e-40 6.74496e-39 1.08311e-37 1.70957e-36 2.6505e-35 4.03334e-34 6.01904e-33 8.80007e-32 
1.25908e-30 1.76063e-29 2.40252e-28 3.19361e-27 4.12659e-26 5.16989e-25 6.26018e-24 7.2977e-23 8.14806e-22 8.65372e-21 
-7.82954e-20 -7.75121e-19 -7.32858e-18 -6.62043e-17 -5.7088e-16 -4.6935e-15 -3.67421e-14 -2.73457e-13 -1.93164e-12 -1.29256e-11 
-8.17593e-11 -4.87721e-10 -2.73675e-09 -1.4405e-08 -7.09073e-08 -3.2536e-07 -1.38696e-06 -5.47389e-06 -1.99344e-05 -6.67802e-05 
-0.000205259 -0.000577659 -0.00148561 -0.0034799 -0.00736719 -0.0138604 -0.0224377 -0.02953 -0.0284835 -0.0156894 
4.8905e-05 0.00358197 -0.00133382 0.00239602 0.00354351 -0.00516308 0.00206745 -0.000215859 0.000228339 -0.000475549 
0.000409372 -0.000224785 9.19233e-05 -3.0136e-05 8.26452e-06 -1.94957e-06 4.03646e-07 -7.45215e-08 1.24354e-08 -1.89925e-09 
2.68812e-10 -3.57097e-11 4.50963e-12 -5.47773e-13 6.45734e-14 -7.42168e-15 8.31531e-16 -9.04708e-17 9.5047e-18 -9.58743e-19 
9.24232e-20 -8.48697e-21 7.40888e-22 -6.14268e-23 4.8357e-24 -3.61539e-25 2.56837e-26 -1.73465e-27 1.11412e-28 -6.79785e-30 
3.91887e-31 -2.09109e-32 9.55018e-34 -2.34744e-35 -2.59252e-36 6.41848e-37 -9.70518e-38 1.26302e-38 -1.51337e-39 1.70414e-40 
-2.0128e-41 -3.04149e-41 -5.37792e-40 -8.80298e-39 -1.41585e-37 -2.2353e-36 -3.46135e-35 -5.25248e-34 -7.80288e-33 -1.13348e-31 
-1.60791e-30 -2.22388e-29 -2.9934e-28 -3.91253e-27 -4.95247e-26 -6.05077e-25 -7.10541e-24 -7.97552e-23 -8.49292e-22 -8.48788e-21 
5.38639e-20 5.76932e-19 5.86219e-18 5.66952e-17 5.21714e-16 4.5649e-15 3.79427e-14 2.99215e-13 2.23536e-12 1.57924e-11 
1.05293e-10 6.60975e-10 3.89641e-09 2.15058e-08 1.10773e-07 5.30555e-07 2.35365e-06 9.63077e-06 3.61941e-05 0.000124423 
0.000389894 0.00111125 0.00287939 0.00679014 0.0145727 0.028252 0.0482727 0.0689568 0.0746496 0.0495487 
0.00634143 -0.0113859 0.00139244 -0.00683399 -0.0135099 0.0173559 -0.00534871 -0.000296666 -0.000915405 0.00217509 
-0.00180848 0.000955827 -0.00037532 0.000117358 -3.03396e-05 6.62631e-06 -1.23638e-06 1.97448e-07 -2.67016e-08 2.94924e-09 
-2.36351e-10 5.89696e-12 2.33904e-12 -5.89563e-13 9.12487e-14 -1.09292e-14 1.04701e-15 -7.50639e-17 2.51246e-18 3.47595e-19 
-9.21106e-20 1.36218e-20 -1.60896e-21 1.65314e-22 -1.53032e-23 1.30004e-24 -1.02493e-25 7.55666e-27 -5.24332e-28 3.4487e-29 
-2.17742e-30 1.35683e-31 -8.85063e-33 6.6157e-34 -6.0112e-35 6.36853e-36 -7.18231e-37 8.08004e-38 -8.80033e-39 9.18236e-40 
-8.93267e-41 4.59134e-41 6.21379e-40 1.02152e-38 1.64507e-37 2.59647e-36 4.01279e-35 6.06626e-34 8.95957e-33 1.29103e-31 