# vtk DataFile Version 2.0
Titre
ASCII
DATASET STRUCTURED_POINTS
DIMENSIONS 100 100 1
ORIGIN 0.0 0.0 0.0
SPACING 0.1 0.1 0.0
POINT_DATA 10000 
SCALARS rho float
LOOKUP_TABLE default
0.000758769 -0.000872666 0.000463032 -0.000447639 -0.000950108 -0.000295563 0.000168912 0.000215679 0.000304407 0.000351597 
0.000309879 0.000168457 4.93418e-05 6.77423e-05 0.000251697 0.000351627 0.000180709 -3.24103e-05 -0.000217189 -0.000724368 
-0.00146743 -0.00124965 0.000664249 0.00320589 0.00436209 0.00301142 7.09061e-05 -0.00248462 -0.0032866 -0.00232281 
-0.000539357 0.00089253 0.00132418 0.00077655 -0.000266114 -0.00113057 -0.00140663 -0.00103595 -0.000277341 0.000505667 
0.00101462 0.00112098 0.000869108 0.000409215 -9.80151e-05 -0.000505729 -0.000757073 -0.000834004 -0.000775452 -0.000634607 
-0.000461718 -0.000302042 -0.000168617 -7.16733e-05 1.3933e-05 9.85353e-05 0.000215124 0.000363936 0.000547093 0.000734218 
0.000885258 0.000946338 0.000873435 0.000635601 0.000244727 -0.000228342 -0.000657778 -0.000907053 -0.000826889 -0.000421877 
0.000116062 0.000539868 0.000700391 0.000475571 -0.000109353 -0.000806403 -0.0011968 -0.00110482 -0.00052872 0.000291083 
0.00110587 0.00145854 0.00121117 0.000513078 -8.40871e-05 -0.00027442 -0.000148223 5.84562e-06 -0.000156928 -0.000436981 
-0.000605895 -0.000368253 0.000108656 0.00056974 0.000574342 0.000328909 -0.000131447 -0.000274817 0.000267004 0.000500055 
8.67983e-05 -0.00123273 0.00112636 -0.000286111 0.000237883 0.000218955 0.000103385 0.000588318 0.000452625 6.95671e-05 
2.14348e-05 0.000276204 0.000289641 0.000128172 0.00018392 0.000241614 0.000140207 -0.000264925 -0.00112765 -0.00180795 
-0.000488258 0.00303125 0.00565958 0.00435768 -0.000670941 -0.00577195 -0.00723454 -0.0045385 -0.000118955 0.00320373 
0.00393648 0.00233205 -0.000163499 -0.00215589 -0.00269405 -0.00177952 -0.000116704 0.00140824 0.00215972 0.00196619 
0.00109099 -3.46352e-05 -0.000950792 -0.001452 -0.00144721 -0.00107618 -0.000497217 0.000100787 0.000590172 0.000892829 
0.000992308 0.000904797 0.000670238 0.000345033 -2.19006e-05 -0.000360645 -0.000623627 -0.000742001 -0.000685494 -0.000427617 
-8.94798e-07 0.000521305 0.00101881 0.00133736 0.00135732 0.00100956 0.000363831 -0.000392101 -0.000970442 -0.00108278 
-0.000581913 0.000433979 0.00161799 0.002494 0.00263247 0.00191612 0.000603825 -0.000683559 -0.00140451 -0.00123283 
-0.000436556 0.000504828 0.000911125 0.000632484 -9.45884e-05 -0.000584765 -0.000466489 0.000183048 0.000794074 0.000827147 
0.000337657 -0.000274657 -0.000445733 -0.000190159 0.000352922 0.00062769 0.000467056 -0.000536929 -0.00074994 -0.00048017 
-0.000221796 -0.000425022 0.000902132 -0.00132019 4.13646e-06 -0.000231959 0.000476377 0.000530067 -9.12832e-05 6.3825e-05 
0.000551099 0.00044014 -4.73805e-05 3.3218e-05 0.000290736 0.000131418 -0.000400861 -0.00127721 -0.00192861 -0.000636856 
0.00294374 0.00511562 0.00275737 -0.00250454 -0.00586804 -0.00399609 0.00133968 0.00548949 0.00561244 0.00239164 
-0.00179558 -0.00444233 -0.00457005 -0.00259094 0.00025704 0.00241154 0.00303696 0.00215767 0.000437986 -0.00120941 
-0.0021625 -0.00218748 -0.00148364 -0.000451648 0.000552063 0.00122142 0.00150918 0.00143053 0.0011169 0.000701297 
0.000273946 -8.54258e-05 -0.000387428 -0.000610717 -0.000813863 -0.00097276 -0.00111762 -0.00118537 -0.0011465 -0.000929473 
-0.000506223 0.000109036 0.000825051 0.00148343 0.00186444 0.001798 0.00117163 9.61143e-05 -0.00117228 -0.002203 
-0.00261099 -0.00216927 -0.00102292 0.000404636 0.00144512 0.00163768 0.000841309 -0.000470371 -0.00162326 -0.00188655 
-0.00116498 0.00017974 0.0012749 0.00152369 0.000784868 -0.000319145 -0.00110708 -0.00104858 -0.000448217 0.000189981 
0.000351819 0.000141236 -3.83774e-05 -4.92187e-05 4.50301e-05 0.00037944 0.00113196 0.000970486 0.000415394 -0.000243397 
4.81102e-05 5.01418e-05 0.000757676 -0.000407799 0.0016892 0.000777919 0.000983943 0.000249545 0.000178953 0.000682819 
0.00029977 -0.000417974 -0.000188698 0.000335118 0.000105747 -0.000476651 -0.00118888 -0.00185163 -0.000970505 0.0024671 
0.00514143 0.00320518 -0.00150108 -0.00421505 -0.00226416 0.00179832 0.00313227 0.000451576 -0.00325065 -0.00494385 
-0.00374122 -0.000564798 0.00254003 0.00427074 0.0039017 0.00187926 -0.000565876 -0.00231498 -0.00274859 -0.00191374 
-0.000480662 0.000934774 0.00173042 0.00186412 0.00139982 0.000687192 5.87978e-06 -0.000445915 -0.000580167 -0.000441382 
-0.000120064 0.000251671 0.00056042 0.000701928 0.000626294 0.000305913 -0.000214359 -0.000856025 -0.00147593 -0.00190275 
-0.00198303 -0.00158365 -0.00074571 0.000423119 0.00156867 0.00235559 0.00239531 0.00157323 2.26712e-05 -0.00171999 
-0.00301034 -0.00317213 -0.00205647 5.9846e-05 0.00222807 0.0035055 0.00314387 0.00137341 -0.00102573 -0.00268555 
-0.00286795 -0.00149472 0.000424063 0.00176181 0.00177816 0.000769407 -0.000355924 -0.000786994 -0.000361089 0.000184563 
0.000314612 -0.000174296 -0.000532993 -0.000268013 4.45006e-05 -0.000344757 -0.000165087 3.15587e-05 0.000271622 1.64063e-05 
-0.000415929 9.6595e-06 0.000500671 -0.000534122 0.00091021 -0.00102222 -4.44843e-05 -0.000332185 3.9172e-05 -8.33898e-05 
-0.000682937 -0.000116244 0.000629647 0.000232284 -0.000399604 -0.000891787 -0.00167628 -0.00147569 0.0015312 0.00494585 
0.00386248 -0.000743745 -0.00382496 -0.00273721 0.000677563 0.0019665 0.000194547 -0.00133355 -0.000419044 0.00161477 
0.00309087 0.00283777 0.00106349 -0.00120669 -0.00312537 -0.00366453 -0.00273043 -0.00094338 0.000916149 0.00198822 
0.00201598 0.00122323 5.36044e-05 -0.000896525 -0.00142917 -0.0013694 -0.000927153 -0.000264444 0.000425894 0.000979849 
0.00140488 0.00161857 0.00172134 0.00162585 0.00140411 0.000938849 0.000277448 -0.000616511 -0.00161854 -0.00255753 
-0.00318743 -0.00321595 -0.00247228 -0.000927706 0.00115727 0.00326109 0.00470868 0.00488556 0.00349064 0.000836651 
-0.00227274 -0.00460722 -0.00517907 -0.00360834 -0.000538793 0.00265597 0.00434961 0.00373533 0.00112136 -0.00195893 
-0.00377577 -0.00336817 -0.00117672 0.00120056 0.00224721 0.0014513 -0.000258466 -0.00143166 -0.00121101 3.94978e-06 
0.000928556 0.0007687 -0.000319598 -0.000714023 0.000346165 0.00080503 0.000924879 0.000583276 0.000575218 5.88914e-05 
9.36024e-05 0.00153197 0.000874958 0.000520169 0.00155589 2.31836e-05 0.00168523 0.000139578 0.000363617 0.000120954 
0.000366352 0.000900377 7.93165e-05 -0.000578831 -0.000675994 -0.00158898 -0.00212088 0.000328214 0.00443617 0.00465987 
0.000310281 -0.00319518 -0.00283798 0.000269705 0.00221021 0.00101152 -0.000548272 -0.000299154 0.00010637 -0.000600791 
-0.00162475 -0.00233293 -0.00185534 -0.000604017 0.00101124 0.00251636 0.00310052 0.00262343 0.00135271 -0.000331715 
-0.00153007 -0.00206411 -0.00175769 -0.00101819 -0.000193166 0.000405205 0.000611233 0.00053327 0.000291656 0.000100531 
0.000119168 0.000386082 0.000928246 0.00158465 0.00223414 0.00261671 0.00256799 0.00190091 0.000624617 -0.00116482 
-0.00307744 -0.00469784 -0.00539275 -0.0048425 -0.00283426 0.000194288 0.00349829 0.00592689 0.0065092 0.00473356 
0.00109722 -0.00316314 -0.0061724 -0.00658238 -0.00400176 0.000368493 0.00440271 0.00591915 0.00416535 0.000111663 
-0.0037633 -0.00527513 -0.00358982 -0.00013351 0.00276286 0.00325618 0.0014382 -0.000973097 -0.00213693 -0.00141647 
0.000137062 0.00113388 0.000420256 -0.00136868 -0.00144183 -0.000748982 0.000109172 0.000159961 0.000570768 0.000762094 
0.000603886 0.000861532 -0.000716609 -0.00040723 -0.00039669 -0.00139845 -0.000267313 -0.00177126 0.000121531 -0.000207351 
-0.000188563 -0.00062426 -0.000856614 -0.000122485 -0.00107672 -0.00247631 -0.000679536 0.00369202 0.00526907 0.00158567 
-0.00238141 -0.00288305 -0.000565685 0.00182859 0.00124637 -0.000659602 -0.000842718 -0.000230397 -0.000399422 -7.09635e-05 
0.000890203 0.00184604 0.00230665 0.00156622 0.000321755 -0.00120374 -0.00258861 -0.00314722 -0.0029274 -0.0019117 
-0.00040761 0.000767514 0.00146924 0.00128298 0.000595091 -0.000416977 -0.00132948 -0.00189747 -0.00209625 -0.00180231 
-0.00123152 -0.00029464 0.000790907 0.0020781 0.00333323 0.00445225 0.00512528 0.00508137 0.00411912 0.00208678 
-0.00071006 -0.003908 -0.00656964 -0.00795077 -0.00721066 -0.00426932 0.000437297 0.00545193 0.00918651 0.00987006 
0.00710439 0.00149409 -0.00457413 -0.00857946 -0.00837373 -0.00410126 0.00231377 0.00732059 0.00832584 0.00469892 
-0.00119573 -0.00590726 -0.00662725 -0.0034176 0.0011631 0.00394011 0.00330352 0.000576543 -0.00184396 -0.00204643 
-0.000681613 0.00110916 0.00202836 0.000582107 -0.000331873 -0.000452838 0.000409265 0.000258221 5.28011e-05 0.000452796 
0.000611524 0.000194402 -0.000266029 0.000909834 0.000968659 0.000933235 0.00166533 0.000694043 0.00181154 -0.000429677 
7.01344e-05 0.000509038 0.00111566 -0.000195305 -0.00291333 -0.00183155 0.00247588 0.00500499 0.00262231 -0.00139351 
-0.00277348 -0.00152334 0.00106817 0.00171829 -0.000224124 -0.000970679 -8.98076e-05 8.61e-05 0.000105604 0.000631632 
0.000265957 -0.00049544 -0.00151562 -0.00205913 -0.00148096 -0.000456452 0.000936103 0.00226795 0.00285808 0.00295277 
0.00206879 0.000674837 -0.000804171 -0.00207628 -0.00272885 -0.00295529 -0.00279725 -0.00258134 -0.0024617 -0.0023858 
-0.00239739 -0.00208104 -0.00145819 -0.000142112 0.00166979 0.00397951 0.00628526 0.00813286 0.00886421 0.0079739 
0.0052093 0.000799484 -0.00446688 -0.00928976 -0.0121322 -0.0118176 -0.00782228 -0.00114544 0.0063435 0.0116871 
0.0127061 0.00840191 0.000434844 -0.00799422 -0.0126914 -0.0114169 -0.00455013 0.00416749 0.0100548 0.00982806 
0.00403958 -0.00346849 -0.00787336 -0.00665452 -0.0014178 0.00379532 0.00513444 0.00243451 -0.0015449 -0.003231 
-0.00223308 -0.000641745 0.00106384 0.000269798 -0.00081301 -0.00135846 -0.000316982 0.000455968 0.000278188 0.000278745 
0.000582166 2.66753e-05 -1.91245e-05 0.000423111 -0.000670202 -0.00132656 -0.00153569 -0.00208593 -0.0011856 -0.0016909 
0.00101946 0.00046606 -0.00119027 -0.00389947 -0.00312083 0.00138061 0.00409116 0.00325061 0.000183782 -0.00196791 
-0.00207813 6.66437e-05 0.00206591 0.000534416 -0.00118264 -0.000342376 0.000328042 2.20301e-05 0.000343924 0.000221731 
-0.000240144 3.46841e-05 0.000311319 0.00109695 0.00148012 0.0010193 0.000357055 -0.000693717 -0.00166613 -0.00213299 
-0.00245508 -0.00186732 -0.00108424 -7.98104e-05 0.000637595 0.000761747 0.000314131 -0.000802822 -0.00218464 -0.00375863 
-0.00509692 -0.00601248 -0.0062143 -0.00543848 -0.0036102 -0.000630223 0.00310851 0.00722423 0.0106735 0.0127069 
0.0121445 0.00876331 0.00253841 -0.00515964 -0.0124927 -0.016997 -0.0167747 -0.0111377 -0.00142547 0.00923108 
0.0166849 0.0175515 0.0110824 -0.000236022 -0.0111252 -0.016199 -0.0128171 -0.00287533 0.00787161 0.0131834 
0.0101328 0.00120064 -0.00752247 -0.0102502 -0.00589285 0.00183066 0.00694576 0.00621707 0.00116385 -0.00304126 
-0.00272056 -0.000700494 0.00192859 0.00178811 0.000498588 -0.000893517 -0.000713197 2.68623e-05 0.000139646 0.000123205 
0.000474856 -0.000469553 -0.000134735 -2.09026e-05 -0.000513967 0.000326085 0.00154594 0.00212486 0.00268017 0.00191847 
0.00191582 -0.00144907 -0.00234781 -0.00190955 0.00128632 0.00308118 0.00291437 0.00210195 -0.000318815 -0.00231867 
-0.00140597 0.0016179 0.00132172 -0.00122339 -0.000791902 0.000507013 9.61349e-05 9.40991e-07 0.000275956 -0.000261159 
-4.62715e-05 1.77218e-05 -0.000334675 -0.000380765 -0.000919253 -0.000868268 -0.000122001 0.000529442 0.00157375 0.00225845 
0.00271844 0.00305122 0.00260198 0.0020217 0.000929574 -0.000216867 -0.00137503 -0.00266808 -0.00393724 -0.00564301 
-0.00734953 -0.00932712 -0.0107934 -0.0115764 -0.0108873 -0.00839211 -0.00394125 0.00229706 0.00925522 0.0158515 
0.0200845 0.0207045 0.0164417 0.00783522 -0.00372605 -0.0148556 -0.022268 -0.0225833 -0.015223 -0.00189766 
0.012351 0.0217258 0.0216075 0.0117098 -0.00368461 -0.0167619 -0.0207681 -0.0134715 0.000629185 0.013067 
0.0163829 0.00918225 -0.00302423 -0.0116702 -0.0113409 -0.00346045 0.00541417 0.00871736 0.00472524 -0.00261284 
-0.00517417 -0.00364473 0.00032147 0.00159606 0.000601702 -0.000856711 -0.000840512 0.000119676 0.000259417 -0.000109858 
8.96543e-05 -0.000665598 0.000250285 0.000132669 -2.14716e-05 0.000472878 -6.74556e-05 -0.00167436 -0.00251099 -0.00290151 
-0.00212855 -0.00249015 -0.000926438 -0.00110244 -0.000238594 0.000824904 0.00310497 0.00192419 -0.00251162 -0.00323612 
0.000471743 0.00214597 -0.000623214 -0.00114895 0.00055604 0.000261238 -0.0002497 0.000368685 7.02052e-05 -9.66823e-05 
0.000370874 -0.00015244 4.76655e-05 0.000461851 0.000720845 0.00150878 0.00140668 0.000749329 0.000402569 -0.000244124 
-3.23953e-05 0.000218521 0.000864571 0.00194584 0.00293238 0.00406264 0.00458307 0.00437999 0.0031279 0.000650074 
-0.00273217 -0.00707057 -0.011459 -0.0156541 -0.0183753 -0.0190789 -0.0167034 -0.0110935 -0.00242369 0.00803879 
0.0182922 0.0257949 0.0279291 0.023318 0.0118089 -0.00379268 -0.0194696 -0.029453 -0.0298349 -0.0191259 
-0.000869651 0.0180677 0.0290893 0.0269248 0.0120404 -0.00802758 -0.0227428 -0.0239916 -0.0115078 0.006546 
0.018717 0.0175623 0.00512178 -0.00912442 -0.0149314 -0.00948253 0.00177148 0.00995357 0.0101985 0.00224259 
-0.00401049 -0.00501114 -0.000702948 0.00245863 0.00187385 -0.000611854 -0.00150657 -0.000372905 0.000473685 -7.33935e-05 
-0.000251493 -0.000314905 0.000541455 -0.000165091 -0.000211427 -7.45947e-05 -0.000452715 -6.84269e-06 0.00217115 0.00352756 
0.00345262 0.000769558 -0.00138392 -0.00272712 0.00089638 0.00487646 0.00486681 -0.00151183 -0.00434787 -8.5723e-05 
0.00302592 0.000536726 -0.0013361 0.000433398 0.000384561 -0.000444161 0.00038409 0.000402833 -0.000336423 0.000197746 
-0.000149315 -0.000587022 0.000220812 0.000177936 0.000254672 0.000116753 -0.000627821 -7.16769e-05 0.000951109 0.00209438 
0.00374342 0.0046148 0.00582811 0.00658704 0.0073274 0.00808711 0.00833426 0.00846332 0.00764257 0.00607023 
0.00300548 -0.00149348 -0.00748064 -0.014529 -0.0214383 -0.027185 -0.0296795 -0.0280548 -0.0209131 -0.00908797 
0.00627639 0.0218288 0.0339536 0.0387129 0.0336217 0.0187662 -0.00252293 -0.0237929 -0.0375367 -0.0377302 
-0.0232861 0.000761027 0.0240578 0.0356237 0.0293622 0.00833349 -0.0159927 -0.0298419 -0.0252278 -0.00585237 
0.0153564 0.0242909 0.016137 -0.00198739 -0.0158723 -0.0162059 -0.00503408 0.00671947 0.0118975 0.0058857 
-0.00269958 -0.00707421 -0.00388805 0.00139723 0.0030389 0.000639305 -0.00157741 -0.00102354 0.0003608 0.000146819 
-0.000409495 6.77924e-05 0.000266505 -0.000494988 -1.90448e-05 0.000142386 0.000263777 0.000807833 0.000768078 -0.0018452 
-0.00479296 -0.00693897 -0.00515101 -0.000681923 0.0047555 0.00429189 -0.000968356 -0.00470641 -0.000639388 0.00266917 
0.000305149 -0.00186378 -7.15658e-05 0.00026886 -0.00102792 0.000211441 0.000698204 -0.000531193 -0.000179118 0.000161779 
-0.000754702 0.000200218 0.000776657 0.000303321 0.000504998 0.000107017 0.000337389 0.00134207 0.00119943 0.00147682 
0.00155033 0.00175567 0.00305255 0.00468873 0.00761329 0.0109121 0.0145203 0.0181013 0.0205112 0.021749 
0.0203039 0.0163833 0.0090342 -0.000959289 -0.0130223 -0.0254882 -0.0360342 -0.0425845 -0.0424743 -0.0349403 
-0.0196336 0.000767206 0.0226957 0.0402523 0.0484623 0.0432218 0.024806 -0.0024186 -0.0294283 -0.0460686 
-0.044582 -0.0244158 0.00641203 0.0335513 0.043257 0.0301265 0.00143574 -0.0261442 -0.0361672 -0.0232294 
0.00313147 0.0244042 0.0267086 0.0100766 -0.0111039 -0.020265 -0.0115547 0.00346617 0.0140671 0.0112587 
0.00124099 -0.00678905 -0.00627334 -0.000358025 0.00353939 0.00206379 -0.00122047 -0.00173484 -1.01665e-05 0.000403595 
-0.000520279 0.000230015 -5.9077e-05 -0.000260652 0.000301478 0.000163797 0.000270707 0.00025568 -0.000206734 -0.000949232 
0.000103144 0.00146214 0.00371999 0.00460859 0.00392963 0.00051057 -0.00138653 -0.000227955 0.00136801 -0.000966193 
-0.00147276 0.000981913 0.00102637 -0.00123921 0.000360823 0.00182526 -0.000246954 -0.00047171 0.00067319 -0.000432864 
-0.000231678 0.00102553 -7.16645e-05 -0.000329663 -0.000348746 -0.000949771 -0.000479541 -0.000720402 -0.00103227 -9.91253e-05 
0.000143364 0.00146639 0.00307457 0.00524 0.00844005 0.0119525 0.016642 0.0215564 0.0267716 0.0314967 
0.0344575 0.0349136 0.0310484 0.0228391 0.00955411 -0.00705978 -0.0254265 -0.042004 -0.053522 -0.0566151 
-0.0491065 -0.0311947 -0.00513304 0.023331 0.0473521 0.0591123 0.0537531 0.0308144 -0.00319334 -0.0365034 
-0.0554434 -0.0507868 -0.0233983 0.0144767 0.0436221 0.0484343 0.0260825 -0.00966726 -0.0367226 -0.038335 
-0.0149046 0.0157438 0.0319836 0.0234016 -0.00116754 -0.0217364 -0.0209278 -0.00494289 0.0123638 0.0155521 
0.005746 -0.00615933 -0.0092568 -0.00334406 0.00328079 0.00392306 7.70045e-05 -0.00210438 -0.000795033 0.00050075 
-0.00053891 0.000288822 -0.000120091 1.61912e-05 0.000177045 6.52615e-05 0.000322811 0.000237797 0.000228222 -0.000312507 
-0.00140251 -0.00403082 -0.00469042 -0.00341119 -0.000325315 0.000744637 2.275e-05 -0.0019069 -0.002409 -0.000117093 
0.00336776 0.00139787 -0.00252515 -0.000756843 0.00244402 -0.000476795 -0.00189059 0.000485563 -0.000185215 -0.00129051 
0.000545193 -0.000128031 -0.0011631 -0.000335351 -0.00122574 -0.0015663 -0.00148932 -0.0025117 -0.00250514 -0.00341424 
-0.00503461 -0.00540582 -0.00588199 -0.00449496 -0.00186279 0.00251986 0.00915213 0.0172662 0.0276153 0.0381714 
0.0483842 0.0557976 0.0586506 0.05538 0.0445704 0.0270856 0.00364543 -0.0218625 -0.0461024 -0.0637386 
-0.0709514 -0.0645342 -0.0443719 -0.0132696 0.0220646 0.0525327 0.0682693 0.0625362 0.0348997 -0.00596471 
-0.0446546 -0.0637173 -0.0533405 -0.0170315 0.026691 0.0542043 0.0493799 0.0157209 -0.0248694 -0.04594 
-0.0342769 -0.000769364 0.0291165 0.0343164 0.0141627 -0.0145655 -0.0257243 -0.0145792 0.00730959 0.0188672 
0.0127698 -0.00223961 -0.0109474 -0.00739302 0.00116284 0.00489284 0.00191439 -0.00157834 -0.00145462 0.000355183 
-0.000428341 0.000379157 -5.18174e-05 2.57377e-05 2.95543e-05 0.000305985 0.000439969 0.000356726 0.000310471 -0.00120966 
-0.00298414 -0.00303423 0.00161766 0.00676388 0.0084635 0.00367302 -0.00165769 -0.00237036 0.00196723 0.00418086 
-3.52925e-05 -0.00515488 -0.0019405 0.00334707 0.000512117 -0.00283148 0.000927734 0.00144042 -0.00142073 0.000219233 
0.00102073 -0.00122142 -0.000291353 -0.000806265 -0.00266344 -0.00248302 -0.00386609 -0.00548597 -0.00698415 -0.0105512 
-0.0126774 -0.0147232 -0.0165752 -0.0169885 -0.0171913 -0.0149892 -0.0104524 -0.00224076 0.00990771 0.0248187 
0.0422134 0.0587164 0.0727776 0.0805778 0.0801785 0.0697461 0.0493636 0.0211275 -0.0114537 -0.0428267 
-0.0676512 -0.0800215 -0.0766232 -0.0559667 -0.0214574 0.0197299 0.0559779 0.0752209 0.0683729 0.0355221 
-0.01223 -0.054569 -0.0709572 -0.0516756 -0.00576573 0.041384 0.0621378 0.0436464 -0.000780868 -0.0408696 
-0.0488135 -0.0213855 0.0176281 0.037821 0.0274784 -0.003761 -0.0261494 -0.0241008 -0.00203632 0.0172273 
0.0180616 0.00342408 -0.0103791 -0.0108936 -0.00184962 0.00483404 0.00340935 -0.000602289 -0.00169371 0.000134099 
-0.000139975 0.000411268 -0.000131627 -0.0001181 0.000200946 0.00061804 0.000382889 0.000469762 -0.000122479 -0.002372 
-0.00311026 -0.0011642 0.00238907 0.00223151 -0.00169392 -0.00645579 -0.00545111 -0.000681171 0.0017074 -0.0020776 
-0.00462921 0.000251803 0.00584308 0.00198686 -0.00336315 0.000587667 0.00298772 -0.00185221 -0.00145162 0.00140831 
-0.00136855 -0.00170133 -0.000425728 -0.00337744 -0.00356739 -0.0039533 -0.00692481 -0.00867462 -0.0126359 -0.0172551 
-0.0209403 -0.0271894 -0.0328108 -0.0391053 -0.0445976 -0.0468771 -0.045978 -0.0390391 -0.0270401 -0.00872157 
0.0142988 0.0398969 0.065697 0.0867452 0.100446 0.102321 0.0920572 0.069086 0.0369735 -0.000426172 
-0.0369866 -0.0668552 -0.0839007 -0.0837248 -0.0641391 -0.0277248 0.0177782 0.0586661 0.0802994 0.0712095 
0.0326033 -0.0212472 -0.0643341 -0.0742694 -0.0434903 0.010494 0.055774 0.0631309 0.0287463 -0.0223962 
-0.0535285 -0.0417846 1.73455e-05 0.0354082 0.0396099 0.0107688 -0.0209201 -0.0301721 -0.0117178 0.0132109 
0.0216212 0.00967331 -0.0080367 -0.0137605 -0.00553645 0.00411337 0.0046648 0.000354797 -0.00166003 -1.77334e-05 
0.000239819 0.000234217 -0.000227868 -2.84356e-05 0.000604693 0.000560877 0.000182488 0.000484928 -0.000908041 -0.00285676 
-0.00203144 0.000146201 0.0019765 0.00155857 0.000996427 0.00128996 0.00337691 0.00357064 0.00161933 0.000381611 
0.00337435 0.00429376 -0.00144386 -0.00606444 -0.000942075 0.0034286 -0.00221696 -0.00358855 0.00168121 -9.06954e-05 
-0.00267019 0.000417608 -0.00174264 -0.00402495 -0.00248299 -0.00571962 -0.00831697 -0.0107729 -0.0168006 -0.0213638 
-0.0287345 -0.0384187 -0.0479879 -0.060348 -0.071098 -0.0810375 -0.0877155 -0.0885438 -0.0830411 -0.0677437 
-0.0446151 -0.0128944 0.0229417 0.058829 0.0895469 0.109457 0.116047 0.107079 0.0850427 0.0521179 
0.0142164 -0.0246097 -0.0575276 -0.0796517 -0.0842865 -0.0687488 -0.0325221 0.0148778 0.0595571 0.0816012 
0.0698074 0.024836 -0.0321217 -0.0718725 -0.0701055 -0.0269516 0.0310902 0.0664179 0.0544381 0.00614112 
-0.0437581 -0.0564905 -0.0233153 0.0223855 0.0454731 0.0263845 -0.0110265 -0.0331913 -0.0226565 0.00588546 
0.0228974 0.0158939 -0.00390788 -0.0154128 -0.00979364 0.00265485 0.00607848 0.00140231 -0.00173028 -0.000200252 
0.000603843 -0.000133125 -0.000191887 0.000198946 0.000722353 0.000205237 0.000319738 0.000549531 -0.00157279 -0.00260108 
-0.00137455 -0.000320725 0.000984177 0.00164855 0.00120917 -0.000875446 -0.00235114 -0.00268949 -0.00179345 -0.0014085 
-0.00259734 -0.00586707 -0.00433075 0.00313413 0.00641196 -0.000537979 -0.00368035 0.00309381 0.00271495 -0.00271628 
0.000260192 0.000952015 -0.00392547 -0.00170582 -0.0022732 -0.00641809 -0.00625479 -0.0104 -0.015379 -0.019853 
-0.0301472 -0.040292 -0.0544827 -0.0722701 -0.0903072 -0.110828 -0.127422 -0.14023 -0.144379 -0.137299 
-0.118243 -0.0854813 -0.0444168 0.00257993 0.0465881 0.083069 0.105645 0.112933 0.105175 0.0852245 
0.0572118 0.0243774 -0.0098668 -0.0422938 -0.0671164 -0.0780527 -0.0674819 -0.0345915 0.0137322 0.0589037 
0.0797129 0.0622454 0.0116315 -0.0454536 -0.0759413 -0.0581931 -0.00440892 0.0508191 0.0665786 0.0345171 
-0.0203477 -0.056694 -0.0421492 0.00278732 0.0418731 0.0394388 0.00349766 -0.0298272 -0.031472 -0.00402326 
0.0214236 0.0215057 0.00162132 -0.0154022 -0.0143799 -0.000266215 0.00752977 0.00326345 -0.00173427 -0.000602109 
0.0009276 -0.000548505 8.91832e-05 0.000347622 0.0005892 6.96279e-05 0.000774879 0.000209792 -0.0022326 -0.00234744 
-0.00154617 -0.000427087 0.00236913 0.003369 0.000930251 -0.00226274 -0.00191656 0.000787127 0.00186453 0.000867465 
0.00103914 0.00410681 0.00818855 0.00473772 -0.00430852 -0.00630352 0.00185077 0.00273035 -0.00489033 -0.00249258 
0.00218443 -0.00293845 -0.00258763 0.00171072 -0.00240166 -0.00139894 0.000158059 -0.00394863 -0.00389154 -0.00814879 
-0.0158555 -0.0239742 -0.0409701 -0.0602071 -0.0850293 -0.114215 -0.14273 -0.171573 -0.190892 -0.200046 
-0.192007 -0.166693 -0.126138 -0.0736926 -0.0198465 0.0303838 0.0666294 0.0882273 0.0928331 0.0864413 
0.0714518 0.053769 0.0318906 0.00704116 -0.022389 -0.0500484 -0.0681983 -0.0642354 -0.0351948 0.0130984 
0.0572879 0.0749925 0.0502507 -0.00347927 -0.0565413 -0.0710463 -0.0375407 0.0221063 0.0624697 0.0523721 
0.00522648 -0.0459487 -0.0524089 -0.0163589 0.0305704 0.0457 0.0179072 -0.0218055 -0.0362877 -0.0151619 
0.0163069 0.0255009 0.00810434 -0.0130723 -0.0178034 -0.0046742 0.00772954 0.00587761 -0.00103155 -0.00114884 
0.0011708 -0.000851793 0.000431006 0.000262826 0.000446365 0.000318846 0.00107153 -0.000516909 -0.002492 -0.00201871 
-0.00153406 0.000653014 0.0033902 0.0015179 -0.00277564 -0.00348698 0.000425949 0.00342327 0.00205691 0.000225825 
-0.000341802 -0.00160551 -0.00567513 -0.00971684 -0.00464889 0.00499353 0.00498687 -0.004014 -0.00199574 0.00602051 
0.0016089 -0.00146092 0.00590653 0.00506253 0.00391805 0.011607 0.0121047 0.0152292 0.0221278 0.0215327 
0.0233129 0.0187726 0.00612354 -0.00994687 -0.0391336 -0.0740769 -0.116616 -0.161504 -0.199773 -0.229064 
-0.237447 -0.226583 -0.192175 -0.141659 -0.0822547 -0.0244926 0.020508 0.0488469 0.0578008 0.0556959 
0.0470948 0.0421856 0.0387064 0.0362783 0.0238332 0.00163007 -0.030126 -0.0541762 -0.0588525 -0.0324366 
0.0123799 0.0544184 0.0641598 0.0336765 -0.0206973 -0.0615897 -0.0571069 -0.0103643 0.0455822 0.059556 
0.0283276 -0.027629 -0.0548395 -0.0325032 0.015571 0.0454955 0.0304436 -0.0106199 -0.0359483 -0.0242682 
0.00859219 0.0267957 0.0141271 -0.00955076 -0.0192855 -0.00889387 0.00643937 0.00824935 0.000493754 -0.00151208 
0.00124822 -0.00100806 0.000662341 7.07744e-05 0.000516907 0.000659528 0.000890156 -0.00118101 -0.0022715 -0.00187826 
-0.0013778 0.00152043 0.00260276 -0.000511412 -0.00184758 0.00115521 0.00354963 0.0010013 -0.0037664 -0.00472782 
-0.00349276 -0.00106416 0.00242457 0.00771431 0.0109361 0.00405842 -0.0055606 -0.00297436 0.00675142 0.00259715 
-0.00354252 0.00501976 0.0093809 0.00654587 0.0170992 0.0265468 0.0318434 0.0488741 0.0617123 0.0736354 
0.0897369 0.094313 0.0961679 0.0862242 0.059438 0.0226655 -0.0319158 -0.091091 -0.153359 -0.206936 
-0.24097 -0.251987 -0.230853 -0.187119 -0.123699 -0.05991 -0.00556663 0.0260473 0.0343844 0.0243699 
0.00855925 -0.000195431 0.00436751 0.0211239 0.0370148 0.0403574 0.0216365 -0.0115175 -0.0430925 -0.0516887 
-0.0286582 0.013672 0.0493715 0.0498844 0.0155488 -0.0336301 -0.0554986 -0.0352686 0.0183323 0.0525081 
0.0428807 -0.00481203 -0.0470929 -0.0433469 -0.000741956 0.0386661 0.038325 0.00110636 -0.0323222 -0.030365 
0.000336511 0.0258729 0.0197409 -0.00548166 -0.0198684 -0.0122771 0.00461613 0.010012 0.00241265 -0.00155863 
0.00111231 -0.00101142 0.000721567 -2.11502e-05 0.000805015 0.000884051 0.000558025 -0.00133954 -0.00194645 -0.00201141 
-0.000881635 0.00207974 0.00161102 -0.00061263 -6.10271e-05 0.000744401 -0.00134059 -0.00342122 -0.00143635 0.00398635 
0.00656467 0.00648469 0.00304767 -0.00264127 -0.00928462 -0.0113321 -0.00260178 0.00687923 0.00277471 -0.00456076 
0.00524667 0.0144845 0.0115211 0.0209456 0.0388847 0.0474589 0.0683146 0.0969439 0.119775 0.154296 
0.185574 0.209184 0.231143 0.231094 0.215809 0.178546 0.115978 0.0409037 -0.0488299 -0.130328 
-0.198073 -0.235221 -0.235097 -0.20115 -0.137462 -0.0668361 -0.00105475 0.0362823 0.0453293 0.0226376 
-0.0105823 -0.0415898 -0.0486413 -0.0318333 0.00518146 0.0389858 0.0544339 0.0378993 0.00267366 -0.0344497 
-0.0439672 -0.0246815 0.0149902 0.0389214 0.0326527 -0.00351912 -0.0362338 -0.0401738 -0.00513934 0.0352887 
0.0438371 0.0125291 -0.0316953 -0.0455094 -0.0142041 0.028304 0.0407198 0.0119737 -0.0261215 -0.0337502 
-0.00755055 0.0227127 0.0244933 -0.000274273 -0.0197156 -0.015347 0.00268281 0.011431 0.00448576 -0.00134563 
0.000679838 -0.000821554 0.000651237 0.00013904 0.00108219 0.000852078 0.000290452 -0.00120337 -0.00193507 -0.00213682 
-0.000209878 0.0018976 0.000697622 -9.02873e-05 0.000139341 -0.000982264 -0.00122627 0.00170421 0.00402878 0.00172274 
-0.00475254 -0.00847 -0.00886862 -0.00455781 0.00302933 0.0108779 0.0120883 0.0032928 -0.002551 0.00748531 
0.0184135 0.0142994 0.0198917 0.0422581 0.0556585 0.0751643 0.115123 0.150923 0.195678 0.254107 
0.302811 0.355905 0.397763 0.415999 0.417282 0.38029 0.314866 0.220311 0.103831 -0.0115243 
-0.119247 -0.189545 -0.220808 -0.201358 -0.14343 -0.0630332 0.018096 0.0730279 0.0929269 0.0682384 
0.0193226 -0.0406796 -0.078432 -0.0868521 -0.0550755 -0.00681311 0.0423298 0.0606228 0.0481636 0.00792285 
-0.0269531 -0.0388394 -0.0180284 0.0136917 0.0281258 0.0142895 -0.0148295 -0.0310822 -0.0160812 0.0179188 
0.0367955 0.0198048 -0.0166799 -0.0399392 -0.0225519 0.0177318 0.0385199 0.0197938 -0.0183514 -0.0343905 
-0.0142827 0.0178294 0.0272399 0.00571829 -0.0180218 -0.0180843 0.000369178 0.0125634 0.00673614 -0.00095313 
2.51342e-06 -0.000401928 0.000493019 0.000481566 0.00114737 0.000784179 0.000324893 -0.00106792 -0.00225346 -0.00194144 
0.000445321 0.00151366 0.000723721 0.000518317 -0.000738479 -0.00158216 0.000750196 0.00243253 -0.000949412 -0.0046601 
-0.00267617 0.00514931 0.0105864 0.0114034 0.00656338 -0.00182743 -0.00890797 -0.00665941 0.00581958 0.0139718 
0.00930442 0.0131524 0.037864 0.05671 0.0732779 0.116246 0.164055 0.2125 0.2865 0.361422 
0.436001 0.519552 0.579547 0.623801 0.637244 0.603322 0.535449 0.418637 0.277214 0.12112 
-0.027526 -0.138958 -0.207317 -0.209873 -0.165213 -0.0775767 0.0176272 0.0997691 0.141661 0.135844 
0.0871215 0.0134154 -0.0563483 -0.100687 -0.101937 -0.0662401 -0.00809785 0.0425086 0.0645736 0.0500479 
0.0105801 -0.0234632 -0.0350032 -0.0136398 0.00991326 0.0178222 0.00323102 -0.0165129 -0.0159517 0.0042026 
0.0262573 0.0201554 -0.00708691 -0.0306948 -0.0254243 0.00824335 0.0337839 0.0241717 -0.0103529 -0.0319881 
-0.0188208 0.0122656 0.027329 0.01083 -0.0148336 -0.0196455 -0.00214725 0.0130945 0.00906232 -0.000428463 
-0.000940087 0.000256471 0.00026045 0.000897051 0.000999419 0.000877866 0.000493356 -0.00117121 -0.00243968 -0.00121043 
0.000745755 0.000941118 0.000828924 5.05948e-05 -0.0016582 -0.000321857 0.00237475 0.000620331 -0.00290899 -0.00059969 
0.00421563 0.00360104 -0.00441902 -0.0112464 -0.0120206 -0.00595902 0.00451996 0.0135642 0.0139811 0.00854963 
0.014873 0.0385494 0.0574299 0.069305 0.106709 0.16034 0.208802 0.283013 0.376623 0.46522 
0.572612 0.675451 0.756118 0.824269 0.842781 0.817291 0.741397 0.605615 0.439918 0.243367 
0.0584887 -0.0989176 -0.203454 -0.238053 -0.212648 -0.128654 -0.0262616 0.0801409 0.14854 0.176947 
0.149475 0.0901908 0.00931696 -0.0579155 -0.100425 -0.0983465 -0.0646011 -0.00673571 0.0391766 0.0630826 
0.0449473 0.0113952 -0.0254467 -0.0315329 -0.0141575 0.00441705 0.0121244 -0.000270109 -0.00600686 -0.00103411 
0.0140398 0.0159514 -0.00291005 -0.0216057 -0.0222165 0.00148106 0.0268778 0.024659 -0.00442275 -0.0280475 
-0.0204094 0.00798119 0.0259697 0.0140913 -0.0115676 -0.0201141 -0.00424534 0.0130908 0.0112992 2.18895e-05 
-0.00207101 0.00114187 -9.41328e-05 0.00128301 0.000779552 0.00122058 0.000571831 -0.00147578 -0.00233628 -0.000573786 