# vtk DataFile Version 2.0
Titre
ASCII
DATASET STRUCTURED_POINTS
DIMENSIONS 100 100 1
ORIGIN 0.0 0.0 0.0
SPACING 0.1 0.1 0.0
POINT_DATA 10000 
SCALARS rho float
LOOKUP_TABLE default
-6.36064e-10 -1.15083e-09 -2.30365e-09 -4.25896e-09 -7.48715e-09 -1.24035e-08 -1.93108e-08 -2.81221e-08 -3.80998e-08 -4.76925e-08 
-5.46768e-08 -5.67315e-08 -5.23764e-08 -4.18984e-08 -2.76834e-08 -1.35147e-08 -2.9726e-09 2.22392e-09 2.84948e-09 1.30053e-09 
-1.3003e-10 -5.06775e-10 -1.98514e-10 8.94939e-11 9.64496e-11 -4.23984e-12 -3.2888e-11 -3.01823e-12 1.04916e-11 1.0589e-12 
-3.36257e-12 4.12835e-14 1.00729e-12 -2.34192e-13 -2.2384e-13 1.3693e-13 9.38829e-15 -3.92241e-14 1.54549e-14 1.75703e-15 
-4.43654e-15 2.07216e-15 -2.85331e-16 -2.3143e-16 1.93817e-16 -8.13196e-17 2.04037e-17 -9.44674e-19 -2.1302e-18 1.40933e-18 
-6.01926e-19 2.06634e-19 -6.1109e-20 1.61096e-20 -3.86986e-21 8.6222e-22 -1.81215e-22 3.657e-23 -7.21735e-24 1.4166e-24 
-2.79849e-25 5.59257e-26 -1.12986e-26 2.30102e-27 -4.7149e-28 9.72081e-29 -2.01818e-29 4.21727e-30 -8.84874e-31 1.81673e-31 
-5.87422e-32 -1.15667e-31 -7.3537e-31 -4.35885e-30 -2.51668e-29 -1.45833e-28 -8.10255e-28 -4.55229e-27 -2.40212e-26 -1.29844e-25 
-6.37593e-25 -3.27836e-24 -1.44437e-23 -6.92051e-23 -2.51685e-22 -1.06677e-21 -2.32433e-21 -6.39332e-21 2.54035e-20 1.54226e-19 
3.79411e-19 -3.35868e-18 -1.10491e-16 -8.8755e-16 -9.46869e-15 -6.04e-14 -4.87719e-13 -2.81424e-12 -1.93259e-11 -1.04437e-10 
1.11505e-09 2.196e-09 4.59328e-09 8.94407e-09 1.65308e-08 2.88111e-08 4.72173e-08 7.24598e-08 1.0361e-07 1.37201e-07 
1.66945e-07 1.84754e-07 1.83326e-07 1.59675e-07 1.17834e-07 6.86315e-08 2.56252e-08 -1.17416e-09 -9.98935e-09 -6.9901e-09 
-1.14541e-09 1.74757e-09 1.26729e-09 -6.47875e-11 -4.58935e-10 -1.05475e-10 1.35402e-10 5.52781e-11 -4.15059e-11 -1.90444e-11 
1.45348e-11 4.57693e-12 -5.33122e-12 -2.27005e-13 1.65268e-12 -4.72459e-13 -2.85625e-13 2.47238e-13 -3.99182e-14 -4.1591e-14 
3.17131e-14 -8.47565e-15 -1.81327e-15 2.82744e-15 -1.4266e-15 4.05845e-16 -2.50566e-17 -4.56047e-17 3.23746e-17 -1.43765e-17 
5.02148e-18 -1.47443e-18 3.73641e-19 -8.23876e-20 1.57075e-20 -2.51891e-21 3.12899e-22 -2.07547e-23 -2.84231e-24 1.376e-24 
-2.93953e-25 3.73427e-26 1.09301e-29 -1.68423e-27 6.3308e-28 -1.6857e-28 3.81915e-29 -7.87799e-30 1.54116e-30 -2.89044e-31 
8.58561e-32 1.54363e-31 8.99052e-31 4.71206e-30 2.37567e-29 1.13475e-28 4.99896e-28 1.92643e-27 5.39099e-27 -9.50752e-28 
-1.78479e-25 -1.87673e-24 -1.47081e-23 -9.88748e-23 -6.04408e-22 -3.35408e-21 -1.69873e-20 -7.46684e-20 -2.57355e-19 -2.9729e-19 
5.57571e-18 7.41229e-17 6.53724e-16 4.87269e-15 3.32091e-14 2.1017e-13 1.27099e-12 7.29431e-12 4.05565e-11 2.15603e-10 
-2.22928e-09 -4.56614e-09 -9.84504e-09 -1.98358e-08 -3.7958e-08 -6.85915e-08 -1.16712e-07 -1.86259e-07 -2.77489e-07 -3.83725e-07 
-4.89009e-07 -5.68959e-07 -5.96753e-07 -5.53945e-07 -4.41947e-07 -2.87003e-07 -1.32619e-07 -2.03784e-08 3.05296e-08 3.10085e-08 
1.05823e-08 -4.52624e-09 -6.10129e-09 -1.11773e-09 1.74516e-09 9.08692e-10 -4.16274e-10 -3.85063e-10 1.12822e-10 1.36293e-10 
-4.42663e-11 -4.12919e-11 2.12555e-11 8.58157e-12 -8.99125e-12 3.49594e-13 2.49996e-12 -1.16075e-12 -1.35477e-13 3.71405e-13 
-1.68436e-13 8.86585e-15 3.25806e-14 -2.22425e-14 7.76038e-15 -9.15749e-16 -7.39253e-16 6.30483e-16 -3.01682e-16 1.08961e-16 
-3.17309e-17 7.45544e-18 -1.30844e-18 1.05419e-19 3.6915e-20 -2.34228e-20 8.3101e-21 -2.34163e-21 5.69669e-22 -1.23708e-22 
2.43664e-23 -4.3862e-24 7.23008e-25 -1.08747e-25 1.4754e-26 -1.75608e-27 1.70182e-28 -9.7816e-30 -8.47591e-31 4.31606e-31 
-8.25127e-32 1.38375e-31 8.13711e-31 5.46347e-30 3.57425e-29 2.28577e-28 1.42707e-27 8.68363e-27 5.13853e-26 2.94727e-25 
1.63075e-24 8.63785e-24 4.32525e-23 1.99855e-22 8.0764e-22 2.39927e-21 -1.83208e-22 -8.41218e-20 -9.54299e-19 -8.02947e-18 
-5.91717e-17 -4.02582e-16 -2.58856e-15 -1.59257e-14 -9.44567e-14 -5.42413e-13 -3.02551e-12 -1.64128e-11 -8.67059e-11 -4.45741e-10 
4.05012e-09 8.72398e-09 1.94912e-08 4.08431e-08 8.12624e-08 1.52785e-07 2.70699e-07 4.50305e-07 7.00257e-07 1.0126e-06 
1.35264e-06 1.65502e-06 1.83388e-06 1.81094e-06 1.5549e-06 1.11204e-06 6.032e-07 1.76228e-07 -6.65073e-08 -1.19113e-07 
-6.20864e-08 3.5379e-09 2.43273e-08 1.00853e-08 -4.91557e-09 -5.19196e-09 5.76339e-10 1.99426e-09 -2.04604e-11 -7.22607e-10 
3.32262e-11 2.50773e-10 -5.14902e-11 -7.29895e-11 3.69631e-11 1.09304e-11 -1.55175e-11 3.45363e-12 2.77432e-12 -2.38124e-12 
5.98168e-13 2.40791e-13 -2.89915e-13 1.31817e-13 -2.58902e-14 -8.47617e-15 1.04103e-14 -5.59135e-15 2.13647e-15 -6.23647e-16 
1.3161e-16 -1.21659e-17 -5.43558e-18 3.93432e-18 -1.61101e-18 5.24117e-19 -1.47336e-19 3.70695e-20 -8.50346e-21 1.79824e-21 
-3.53039e-22 6.46369e-23 -1.10659e-23 1.77353e-24 -2.65979e-25 3.72372e-26 -4.8413e-27 5.7863e-28 -6.23103e-29 5.76735e-30 
-4.58383e-31 -3.38549e-31 -2.06282e-30 -1.217e-29 -7.01282e-29 -3.94122e-28 -2.14797e-27 -1.12557e-26 -5.59065e-26 -2.56189e-25 
-1.01724e-24 -2.81011e-24 3.31098e-24 1.3932e-22 1.5188e-21 1.28692e-20 9.69833e-20 6.80408e-19 4.53832e-18 2.91086e-17 
1.8076e-16 1.09148e-15 6.42666e-15 3.69655e-14 2.07927e-13 1.14422e-12 6.15945e-12 3.24103e-11 1.66481e-10 8.33104e-10 
-6.98367e-09 -1.57792e-08 -3.65273e-08 -7.95494e-08 -1.64499e-07 -3.21686e-07 -5.93295e-07 -1.02845e-06 -1.66879e-06 -2.52226e-06 
-3.52941e-06 -4.53702e-06 -5.30342e-06 -5.55786e-06 -5.11304e-06 -3.98785e-06 -2.4608e-06 -9.85823e-07 1.90326e-08 3.91262e-07 
2.90763e-07 4.95479e-08 -7.8567e-08 -5.68516e-08 6.05082e-09 2.32082e-08 3.46302e-09 -8.18514e-09 -2.15424e-09 3.01474e-09 
7.10974e-10 -1.17787e-09 -7.05896e-11 4.30622e-10 -9.52161e-11 -1.11538e-10 7.38697e-11 2.29834e-12 -2.32052e-11 1.1611e-11 
-2.2583e-13 -2.90186e-12 1.89136e-12 -5.61131e-13 -3.81889e-14 1.41778e-13 -9.09627e-14 3.8053e-14 -1.14812e-14 2.19824e-15 
4.92694e-17 -2.77807e-16 1.57804e-16 -6.33741e-17 2.11637e-17 -6.21159e-18 1.64567e-18 -3.99668e-19 8.9862e-20 -1.88331e-20 
3.69697e-21 -6.82138e-22 1.18601e-22 -1.94637e-23 3.01769e-24 -4.42073e-25 6.1143e-26 -7.96868e-27 9.75049e-28 -1.11289e-28 
1.17584e-29 -8.76597e-31 1.34658e-30 6.25532e-30 2.79379e-29 9.86654e-29 1.16795e-28 -2.46364e-27 -3.5211e-26 -3.39318e-25 
-2.81542e-24 -2.14973e-23 -1.55325e-22 -1.0773e-21 -7.2325e-21 -4.72459e-20 -3.0135e-19 -1.88122e-18 -1.15128e-17 -6.9148e-17 
-4.0788e-16 -2.36367e-15 -1.34569e-14 -7.52446e-14 -4.12947e-13 -2.22213e-12 -1.17084e-11 -6.02943e-11 -3.02742e-10 -1.47765e-09 
1.12755e-08 2.67545e-08 6.42556e-08 1.45553e-07 3.13053e-07 6.37092e-07 1.22362e-06 2.21082e-06 3.7435e-06 5.91333e-06 
8.66505e-06 1.16954e-05 1.44061e-05 1.59918e-05 1.57094e-05 1.32673e-05 9.13443e-06 4.50598e-06 8.0742e-07 -1.04891e-06 
-1.15234e-06 -4.12812e-07 1.83494e-07 2.50499e-07 3.74005e-08 -8.31006e-08 -3.60371e-08 2.59357e-08 1.70217e-08 -9.54047e-09 
-6.39539e-09 4.28167e-09 1.75322e-09 -1.97095e-09 -8.15357e-11 7.17301e-10 -2.54458e-10 -1.20904e-10 1.39867e-10 -3.91084e-11 
-1.764e-11 2.16704e-11 -9.45964e-12 1.02952e-12 1.48299e-12 -1.27306e-12 6.10354e-13 -1.99527e-13 3.77536e-14 4.22868e-15 
-7.87411e-15 4.48886e-15 -1.88335e-15 6.63378e-16 -2.06032e-16 5.78405e-17 -1.48968e-17 3.55442e-18 -7.91174e-19 1.6513e-19 
-3.2443e-20 6.01816e-21 -1.05647e-21 1.75817e-22 -2.77727e-23 4.16739e-24 -5.94195e-25 8.04827e-26 -1.03465e-26 1.26017e-27 
-1.44957e-28 1.58612e-29 -1.00494e-31 1.1786e-29 8.81401e-29 6.49855e-28 4.67717e-27 3.29574e-26 2.2781e-25 1.54697e-24 
1.03316e-23 6.79211e-23 4.39827e-22 2.80681e-21 1.76585e-20 1.09547e-19 6.7019e-19 4.04324e-18 2.40506e-17 1.4101e-16 
8.14517e-16 4.63225e-15 2.59154e-14 1.42472e-13 7.6865e-13 4.06291e-12 2.09982e-11 1.05849e-10 5.18839e-10 2.46352e-09 
-1.70017e-08 -4.2396e-08 -1.05763e-07 -2.49373e-07 -5.58239e-07 -1.18294e-06 -2.36703e-06 -4.45906e-06 -7.88031e-06 -1.30095e-05 
-1.9959e-05 -2.82715e-05 -3.66647e-05 -4.30476e-05 -4.50333e-05 -4.09652e-05 -3.10636e-05 -1.79279e-05 -5.7103e-06 1.93559e-06 
3.91748e-06 2.15525e-06 -1.29426e-07 -9.01116e-07 -3.55127e-07 2.25097e-07 2.02029e-07 -5.23856e-08 -8.8519e-08 1.77585e-08 
3.58543e-08 -1.05206e-08 -1.26681e-08 6.90242e-09 2.86718e-09 -3.52703e-09 3.8738e-10 1.03769e-09 -6.53123e-10 3.1542e-11 
1.79848e-10 -1.23324e-10 3.27882e-11 9.36498e-12 -1.47507e-11 8.62452e-12 -3.21886e-12 6.82708e-13 7.61348e-14 -1.62967e-13 
1.006e-13 -4.53398e-14 1.70814e-14 -5.6577e-15 1.6903e-15 -4.62567e-16 1.17146e-16 -2.76562e-17 6.12002e-18 -1.27481e-18 
2.508e-19 -4.67268e-20 8.26223e-21 -1.3889e-21 2.22267e-22 -3.38958e-23 4.92923e-24 -6.83787e-25 9.04818e-26 -1.14157e-26 
1.37171e-27 -1.57565e-28 1.10772e-29 -4.20646e-29 -2.75957e-28 -1.8698e-27 -1.2546e-26 -8.33705e-26 -5.48569e-25 -3.57332e-24 
-2.30379e-23 -1.46978e-22 -9.27673e-22 -5.79101e-21 -3.57433e-20 -2.1805e-19 -1.31415e-18 -7.82056e-18 -4.59264e-17 -2.6595e-16 
-1.5173e-15 -8.51979e-15 -4.70266e-14 -2.54795e-13 -1.35278e-12 -7.02383e-12 -3.55763e-11 -1.75264e-10 -8.36675e-10 -3.85223e-09 
2.37968e-08 6.24495e-08 1.62064e-07 3.98173e-07 9.28612e-07 2.05059e-06 4.27757e-06 8.40574e-06 1.55093e-05 2.67631e-05 
4.2986e-05 6.3881e-05 8.71677e-05 0.000108116 0.000120193 0.000117289 9.70705e-05 6.36771e-05 2.73869e-05 1.05769e-07 
-1.12814e-05 -8.92222e-06 -1.59224e-06 2.59708e-06 1.86125e-06 -3.33292e-07 -8.49232e-07 -2.88951e-08 3.5604e-07 2.78386e-08 
-1.54095e-07 2.42173e-09 6.46223e-08 -1.54057e-08 -2.15575e-08 1.34978e-08 2.62284e-09 -6.11847e-09 2.24995e-09 7.74963e-10 
-1.19668e-09 5.44305e-10 -2.62586e-11 -1.31142e-10 1.03835e-10 -4.65803e-11 1.21298e-11 4.11312e-13 -2.5955e-12 1.83444e-12 
-9.07033e-13 3.69566e-13 -1.31409e-13 4.19521e-14 -1.22286e-14 3.29101e-15 -8.24223e-16 1.93243e-16 -4.26099e-17 8.86883e-18 
-1.74772e-18 3.2689e-19 -5.81486e-20 9.85412e-21 -1.59307e-21 2.45965e-22 -3.62992e-23 5.12352e-24 -6.9189e-25 8.94e-26 
-1.10501e-26 1.30797e-27 -1.35539e-28 1.00077e-28 5.62076e-28 3.7721e-27 2.49994e-26 1.64268e-25 1.0697e-24 6.90146e-24 
4.41016e-23 2.79033e-22 1.74736e-21 1.08255e-20 6.63205e-20 4.01556e-19 2.40146e-18 1.41752e-17 8.25193e-17 4.73316e-16 
2.67209e-15 1.48291e-14 8.07817e-14 4.31233e-13 2.25133e-12 1.14672e-11 5.68199e-11 2.72907e-10 1.26484e-09 5.62362e-09 
-3.07031e-08 -8.49683e-08 -2.29815e-07 -5.89185e-07 -1.43338e-06 -3.30197e-06 -7.18701e-06 -1.47425e-05 -2.84135e-05 -5.12666e-05 
-8.62157e-05 -0.000134402 -0.000192877 -0.000252496 -0.000297801 -0.000310779 -0.000278876 -0.000204207 -0.000107633 -2.1783e-05 
2.61325e-05 3.09909e-05 1.17138e-05 -5.32948e-06 -7.39121e-06 -7.82663e-07 2.81699e-06 9.01969e-07 -1.12551e-06 -4.49644e-07 
5.23133e-07 1.53077e-07 -2.58677e-07 -8.38592e-09 1.12638e-07 -3.64103e-08 -2.97712e-08 2.81025e-08 -3.90981e-09 -7.67531e-09 
6.1619e-09 -1.6642e-09 -7.14088e-10 1.01472e-09 -5.80895e-10 1.93457e-10 -1.40984e-11 -3.14637e-11 2.74069e-11 -1.52102e-11 
6.77964e-12 -2.60591e-12 8.93015e-13 -2.78111e-13 7.96961e-14 -2.11988e-14 5.26834e-15 -1.22947e-15 2.7052e-16 -5.63066e-17 
1.1117e-17 -2.08686e-18 3.73181e-19 -6.36771e-20 1.03821e-20 -1.6193e-21 2.41832e-22 -3.4607e-23 4.74799e-24 -6.24734e-25 
7.88415e-26 -9.54241e-27 1.08088e-27 -2.68269e-28 -9.9825e-28 -6.73132e-27 -4.45943e-26 -2.92672e-25 -1.90303e-24 -1.22551e-23 
-7.81361e-23 -4.93035e-22 -3.07757e-21 -1.89945e-20 -1.1585e-19 -6.97819e-19 -4.14814e-18 -2.43151e-17 -1.40413e-16 -7.97971e-16 
-4.45739e-15 -2.44384e-14 -1.31293e-13 -6.89823e-13 -3.53633e-12 -1.76386e-11 -8.53039e-11 -3.98277e-10 -1.78516e-09 -7.62426e-09 
3.61798e-08 1.05912e-07 2.99297e-07 8.02276e-07 2.03956e-06 4.90859e-06 1.11616e-05 2.39236e-05 4.82006e-05 9.09842e-05 
0.000160257 0.000262083 0.000395455 0.00054605 0.000682394 0.00075974 0.000735584 0.00059403 0.000365987 0.000126477 
-4.02338e-05 -9.13929e-05 -5.34396e-05 2.95993e-06 2.3492e-05 8.71126e-06 -7.097e-06 -5.22874e-06 2.58854e-06 2.52377e-06 
-1.32927e-06 -1.07427e-06 8.12864e-07 3.12315e-07 -4.61266e-07 2.95906e-08 1.82549e-07 -1.00686e-07 -1.65754e-08 4.76486e-08 
-2.49901e-08 1.0532e-09 7.36653e-09 -5.9831e-09 2.60619e-09 -4.83034e-10 -2.65914e-10 3.32424e-10 -2.13677e-10 1.05649e-10 
-4.42523e-11 1.63651e-11 -5.46579e-12 1.67237e-12 -4.73401e-13 1.24878e-13 -3.08689e-14 7.18223e-15 -1.57862e-15 3.2877e-16 
-6.50461e-17 1.22523e-17 -2.20143e-18 3.77909e-19 -6.20681e-20 9.76484e-21 -1.47302e-21 2.13231e-22 -2.96397e-23 3.95812e-24 
-5.07981e-25 6.26956e-26 -7.42924e-27 1.12765e-27 1.55257e-27 1.12354e-26 7.43592e-26 4.88856e-25 3.18122e-24 2.04896e-23 
1.30565e-22 8.22793e-22 5.12527e-21 3.15405e-20 1.91636e-19 1.14878e-18 6.78896e-18 3.95168e-17 2.26319e-16 1.27379e-15 
7.03586e-15 3.8078e-14 2.01532e-13 1.04076e-12 5.23007e-12 2.54902e-11 1.19989e-10 5.42608e-10 2.34066e-09 9.53734e-09 
-3.84475e-08 -1.19623e-07 -3.54406e-07 -9.96107e-07 -2.65271e-06 -6.68382e-06 -1.59055e-05 -3.56739e-05 -7.52227e-05 -0.000148676 
-0.000274439 -0.000470981 -0.000747215 -0.00108787 -0.00143917 -0.0017063 -0.00177601 -0.00156849 -0.00109953 -0.000508755 
-1.08735e-05 0.000225433 0.000191189 3.75203e-05 -5.8527e-05 -4.21139e-05 1.0713e-05 2.05942e-05 -2.66656e-06 -1.00015e-05 
1.86083e-06 4.89965e-06 -1.81695e-06 -2.01159e-06 1.49285e-06 3.90269e-07 -8.41709e-07 2.50197e-07 2.09161e-07 -2.28241e-07 
7.34375e-08 2.99848e-08 -4.81567e-08 2.85592e-08 -8.68007e-09 -9.59048e-10 3.17938e-09 -2.49436e-09 1.3941e-09 -6.42734e-10 
2.58163e-10 -9.28977e-11 3.04566e-11 -9.20073e-12 2.58195e-12 -6.77217e-13 1.66829e-13 -3.8752e-14 8.51601e-15 -1.7755e-15 
3.52054e-16 -6.65304e-17 1.2005e-17 -2.07178e-18 3.42434e-19 -5.42747e-20 8.25775e-21 -1.20713e-21 1.69664e-22 -2.29411e-23 
2.98526e-24 -3.73731e-25 4.47549e-26 -5.36666e-27 -2.22478e-27 -1.75298e-26 -1.1721e-25 -7.71566e-25 -5.02865e-24 -3.24103e-23 
-2.06501e-22 -1.30006e-21 -8.08309e-21 -4.96026e-20 -3.00226e-19 -1.79091e-18 -1.05195e-17 -6.07816e-17 -3.45066e-16 -1.92221e-15 
-1.04903e-14 -5.59837e-14 -2.91525e-13 -1.47738e-12 -7.26302e-12 -3.45e-11 -1.5754e-10 -6.86945e-10 -2.83417e-09 -1.09173e-08 
3.61648e-08 1.20522e-07 3.76275e-07 1.11365e-06 3.11808e-06 8.25036e-06 2.06001e-05 4.84504e-05 0.000107106 0.000221958 
0.00042979 0.000774512 0.00129235 0.00198366 0.00277642 0.00350084 0.00390669 0.00375063 0.00294153 0.00166627 
0.000375102 -0.000439747 -0.000566665 -0.000232729 9.9296e-05 0.000147114 1.03543e-05 -6.15354e-05 -1.09453e-05 3.05415e-05 
3.45156e-06 -1.71951e-05 1.41366e-06 8.91144e-06 -3.52798e-06 -3.13746e-06 3.09331e-06 -1.34261e-07 -1.28611e-06 8.73401e-07 
-8.63935e-08 -2.71303e-07 2.45747e-07 -1.09304e-07 1.31785e-08 2.22283e-08 -2.37788e-08 1.54577e-08 -7.94826e-09 3.49506e-09 
-1.36261e-09 4.80786e-10 -1.55571e-10 4.65907e-11 -1.30023e-11 3.39929e-12 -8.3609e-13 1.94159e-13 -4.26995e-14 8.91655e-15 
-1.77213e-15 3.35912e-16 -6.08408e-17 1.05469e-17 -1.75251e-18 2.79488e-19 -4.28278e-20 6.31202e-21 -8.95458e-22 1.22363e-22 
-1.61161e-23 2.0485e-24 -2.5279e-25 3.20133e-26 -8.04797e-28 2.73124e-26 1.73879e-25 1.15193e-24 7.51797e-24 4.84969e-23 
3.08992e-22 1.94352e-21 1.20611e-20 7.3799e-20 4.44895e-19 2.64018e-18 1.54083e-17 8.83339e-17 4.96806e-16 2.73699e-15 
1.47439e-14 7.74974e-14 3.96461e-13 1.96795e-12 9.44214e-12 4.35781e-11 1.92248e-10 8.03764e-10 3.14585e-09 1.13108e-08 
-2.92054e-08 -1.05713e-07 -3.50729e-07 -1.1007e-06 -3.25891e-06 -9.09903e-06 -2.3933e-05 -5.92216e-05 -0.000137618 -0.000299647 
-0.000609646 -0.00115495 -0.00202832 -0.00328319 -0.00486079 -0.00651277 -0.00777701 -0.00808186 -0.00701317 -0.00465352 
-0.00175013 0.000552283 0.0014047 0.000895362 -2.02138e-05 -0.000398105 -0.000146775 0.000135639 7.9386e-05 -7.04197e-05 
-3.58324e-05 4.76625e-05 1.11329e-05 -3.09399e-05 3.72883e-06 1.53016e-05 -8.90483e-06 -2.86635e-06 5.87553e-06 -2.56506e-06 
-6.76047e-07 1.56615e-06 -1.02192e-06 3.03721e-07 8.48959e-08 -1.78901e-07 1.42147e-07 -8.30472e-08 4.03801e-08 -1.71711e-08 
6.5547e-09 -2.28213e-09 7.32437e-10 -2.18339e-10 6.08005e-11 -1.58875e-11 3.91013e-12 -9.09273e-13 2.00343e-13 -4.19289e-14 
8.35411e-15 -1.58795e-15 2.88502e-16 -5.01876e-17 8.37273e-18 -1.34146e-18 2.06671e-19 -3.06512e-20 4.38012e-21 -6.0356e-22 
8.0229e-23 -1.02786e-23 1.2587e-24 -1.4072e-25 3.87616e-27 -3.35774e-26 -2.47691e-25 -1.6221e-24 -1.06179e-23 -6.85537e-23 
-4.36801e-22 -2.74487e-21 -1.70008e-20 -1.03708e-19 -6.22565e-19 -3.67433e-18 -2.12969e-17 -1.21073e-16 -6.74119e-16 -3.66972e-15 
-1.94918e-14 -1.00771e-13 -5.05592e-13 -2.4528e-12 -1.14531e-11 -5.11679e-11 -2.16974e-10 -8.63489e-10 -3.17082e-09 -1.04445e-08 
1.90847e-08 7.73011e-08 2.76954e-07 9.33469e-07 2.95252e-06 8.77054e-06 2.44645e-05 6.40369e-05 0.000157109 0.000360684 
0.000773116 0.0015428 0.00285562 0.0048785 0.00764195 0.0108764 0.0138805 0.015568 0.0148373 0.0112478 
0.00565535 0.000185563 -0.00286065 -0.00266512 -0.000645293 0.000807684 0.000630423 -0.000170824 -0.000292762 0.000103395 
0.000149373 -0.000100302 -7.32652e-05 8.61123e-05 1.63741e-05 -5.721e-05 1.76336e-05 2.07316e-05 -2.14568e-05 4.61935e-06 
6.32242e-06 -7.05295e-06 3.41378e-06 -3.08442e-07 -9.81569e-07 1.0611e-06 -7.25017e-07 3.94961e-07 -1.8465e-07 7.67164e-08 
-2.88935e-08 9.98926e-09 -3.19728e-09 9.53241e-10 -2.65964e-10 6.97062e-11 -1.72157e-11 4.01783e-12 -8.88336e-13 1.86511e-13 
-3.7268e-14 7.10205e-15 -1.29333e-15 2.2549e-16 -3.77047e-17 6.05645e-18 -9.35903e-19 1.39316e-19 -1.99998e-20 2.77167e-21 
-3.71222e-22 4.81816e-23 -6.13457e-24 8.13026e-25 -1.29564e-25 8.66021e-26 3.09236e-25 2.16488e-24 1.41366e-23 9.13942e-23 
5.82365e-22 3.65612e-21 2.25985e-20 1.37412e-19 8.21217e-19 4.81854e-18 2.77247e-17 1.56204e-16 8.60347e-16 4.62332e-15 
2.41833e-14 1.22781e-13 6.02953e-13 2.85155e-12 1.29147e-11 5.55981e-11 2.25168e-10 8.44886e-10 2.86589e-09 8.39765e-09 
-8.60694e-09 -4.2735e-08 -1.7214e-07 -6.41503e-07 -2.2147e-06 -7.1148e-06 -2.13156e-05 -5.9612e-05 -0.000155631 -0.000379042 
-0.000860055 -0.00181438 -0.0035486 -0.0064094 -0.0106332 -0.0160801 -0.0219212 -0.0264879 -0.0275935 -0.0235425 
-0.0145572 -0.00362749 0.00450998 0.0064501 0.00307548 -0.000980451 -0.00184621 -0.000179471 0.000745144 1.07748e-05 
-0.000428578 0.000133621 0.000277885 -0.000186485 -0.000125717 0.000172057 -6.37433e-06 -9.44162e-05 6.25415e-05 4.37499e-06 
-3.35499e-05 2.58552e-05 -8.32233e-06 -2.93057e-06 6.18315e-06 -5.20503e-06 3.23669e-06 -1.67964e-06 7.6453e-07 -3.13298e-07 
1.17376e-07 -4.05954e-08 1.30461e-08 -3.91384e-09 1.10001e-09 -2.90498e-10 7.22724e-11 -1.69798e-11 3.77591e-12 -7.96535e-13 
1.59745e-13 -3.05222e-14 5.56766e-15 -9.71578e-16 1.6251e-16 -2.61029e-17 4.03334e-18 -6.00492e-19 8.62656e-20 -1.19719e-20 
1.60576e-21 -2.07636e-22 2.54407e-23 -2.67925e-24 7.02186e-26 5.29233e-26 -4.75738e-25 -2.66632e-24 -1.774e-23 -1.14698e-22 
-7.30986e-22 -4.58464e-21 -2.8277e-20 -1.71358e-19 -1.01923e-18 -5.94325e-18 -3.39283e-17 -1.89317e-16 -1.03059e-15 -5.46096e-15 
-2.80909e-14 -1.39808e-13 -6.70463e-13 -3.08178e-12 -1.34834e-11 -5.56217e-11 -2.13394e-10 -7.45272e-10 -2.28192e-09 -5.64826e-09 
6.96102e-10 1.21592e-08 6.71017e-08 3.07592e-07 1.23671e-06 4.4856e-06 1.48767e-05 4.5443e-05 0.000128344 0.000335772 
0.00081412 0.00182842 0.003798 0.00727824 0.0128173 0.0206215 0.0300427 0.0390861 0.0443911 0.0422522 
0.0308649 0.0128232 -0.00448935 -0.0127513 -0.00936375 -0.000628912 0.00397739 0.00182201 -0.00124921 -0.00061975 
0.000882918 1.44243e-05 -0.000782883 0.000275953 0.000510453 -0.0004131 -0.000135787 0.000331491 -0.00013509 -8.28488e-05 
0.000135212 -7.63533e-05 8.14457e-06 2.56753e-05 -2.99838e-05 2.19333e-05 -1.27892e-05 6.42179e-06 -2.87979e-06 1.17645e-06 
-4.42864e-07 1.54675e-07 -5.03385e-08 1.53119e-08 -4.36373e-09 1.1677e-09 -2.94011e-10 6.98023e-11 -1.56592e-11 3.32652e-12 
-6.70606e-13 1.28569e-13 -2.34924e-14 4.09993e-15 -6.84866e-16 1.0973e-16 -1.68976e-17 2.50589e-18 -3.58553e-19 4.95923e-20 
-6.64715e-21 8.69036e-22 -1.13668e-22 1.63537e-23 -3.21794e-24 1.06104e-24 8.84436e-26 3.3286e-24 2.08192e-23 1.353e-22 
8.62214e-22 5.40227e-21 3.32447e-20 2.00738e-19 1.18796e-18 6.88115e-18 3.89525e-17 2.15098e-16 1.15618e-15 6.0336e-15 
3.04732e-14 1.48372e-13 6.92993e-13 3.08495e-12 1.29758e-11 5.09381e-11 1.83177e-10 5.84826e-10 1.55805e-09 2.92071e-09 
3.02136e-09 6.36094e-09 7.34071e-09 -3.5224e-08 -3.26362e-07 -1.69394e-06 -7.01533e-06 -2.51457e-05 -8.04956e-05 -0.000233565 
-0.000618982 -0.00150406 -0.00335642 -0.00687871 -0.0129269 -0.0222013 -0.0346347 -0.048567 -0.0601193 -0.0635874 
-0.0537766 -0.0302294 -0.000820562 0.0201247 0.0216906 0.007495 -0.00582915 -0.00617829 0.000623665 0.00211611 
-0.00113406 -0.000637546 0.00171868 -9.68759e-05 -0.00153996 0.000738875 0.000759412 -0.000935293 0.000145886 0.000435931 
-0.000438544 0.000168307 5.22218e-05 -0.000132445 0.000120786 -8.05589e-05 4.49453e-05 -2.21612e-05 9.92688e-06 -4.09765e-06 
1.56979e-06 -5.60037e-07 1.86406e-07 -5.79655e-08 1.68644e-08 -4.59811e-09 1.17707e-09 -2.83477e-10 6.43632e-11 -1.38069e-11 
2.80438e-12 -5.40503e-13 9.90646e-14 -1.73037e-14 2.88671e-15 -4.60956e-16 7.061e-17 -1.03987e-17 1.47546e-18 -2.02075e-19 
2.67239e-20 -3.39108e-21 3.97689e-22 -3.46844e-23 -2.53059e-24 3.18657e-24 -2.12661e-24 -2.83913e-24 -2.33103e-23 -1.4955e-22 
-9.53935e-22 -5.97043e-21 -3.66539e-20 -2.2048e-19 -1.29777e-18 -7.46383e-18 -4.18697e-17 -2.2862e-16 -1.21208e-15 -6.22084e-15 
-3.07938e-14 -1.46338e-13 -6.63651e-13 -2.84941e-12 -1.14554e-11 -4.24271e-11 -1.4103e-10 -4.0101e-10 -8.71178e-10 -8.78005e-10 
-2.96791e-09 -1.09312e-08 -3.6215e-08 -1.03588e-07 -2.39455e-07 -3.46055e-07 3.88244e-07 5.57207e-06 2.77104e-05 0.000103419 
0.00032582 0.000902458 0.00223805 0.00501537 0.0102036 0.0188775 0.0317192 0.0481397 0.06517 0.0767346 
0.0746304 0.0527913 0.0143875 -0.0238998 -0.0395502 -0.0242943 0.00298447 0.0137897 0.00410389 -0.0039413 
5.22029e-05 0.00179468 -0.00293646 -0.000923894 0.00369888 -0.000715228 -0.00266955 0.00209649 0.000378778 -0.0016004 
0.00114323 -0.000190207 -0.000399982 0.00052611 -0.000414294 0.000259063 -0.00014082 6.93899e-05 -3.16098e-05 1.34102e-05 
-5.30549e-06 1.95618e-06 -6.71813e-07 2.14957e-07 -6.41497e-08 1.78863e-08 -4.66906e-09 1.14369e-09 -2.63491e-10 5.72267e-11 
-1.17431e-11 2.28174e-12 -4.20699e-13 7.37566e-14 -1.23212e-14 1.96527e-15 -2.99935e-16 4.38948e-17 -6.17438e-18 8.37149e-19 
-1.09949e-19 1.41844e-20 -1.88531e-21 2.95926e-22 -6.65819e-23 2.11483e-23 -7.07341e-24 6.35112e-24 2.29009e-23 1.55248e-22 
9.87845e-22 6.17676e-21 3.78255e-20 2.26608e-19 1.32619e-18 7.56926e-18 4.20491e-17 2.26827e-16 1.18476e-15 5.97107e-15 
2.8912e-14 1.33754e-13 5.86927e-13 2.4189e-12 9.23099e-12 3.19141e-11 9.62686e-11 2.34371e-10 3.6248e-10 -1.74369e-10 
1.1141e-09 6.27075e-09 2.76484e-08 1.07089e-07 3.67325e-07 1.11471e-06 2.94959e-06 6.54435e-06 1.08361e-05 6.30886e-06 
-4.33519e-05 -0.000240972 -0.000824056 -0.00225218 -0.00527174 -0.0108813 -0.020108 -0.0335086 -0.0502767 -0.0668688 
-0.0757044 -0.0662372 -0.0318358 0.0185333 0.0562033 0.052394 0.0123804 -0.0208921 -0.0168322 0.00254564 
0.00372665 -0.00225651 0.00386974 0.00344646 -0.00718828 -0.000945411 0.00714111 -0.00346493 -0.00284352 0.00457724 
-0.00227023 -0.000452494 0.00171469 -0.00171015 0.00121688 -0.000729157 0.000394585 -0.000198982 9.43086e-05 -4.18888e-05 
1.73373e-05 -6.65892e-06 2.36968e-06 -7.81744e-07 2.39512e-07 -6.83226e-08 1.81962e-08 -4.53717e-09 1.06205e-09 -2.33971e-10 
4.86254e-11 -9.55447e-12 1.77865e-12 -3.14316e-13 5.28261e-14 -8.4593e-15 1.29305e-15 -1.89009e-16 2.64674e-17 -3.55502e-18 
4.57347e-19 -5.55904e-20 5.95668e-21 -3.50016e-22 -1.07468e-22 6.96995e-23 -2.92193e-23 6.79363e-24 -2.64143e-23 -1.48839e-22 
-9.5627e-22 -5.97009e-21 -3.64644e-20 -2.17517e-19 -1.26522e-18 -7.1625e-18 -3.93748e-17 -2.09632e-16 -1.07737e-15 -5.32325e-15 
-2.51582e-14 -1.1298e-13 -4.77855e-13 -1.88018e-12 -6.75676e-12 -2.15277e-11 -5.753e-11 -1.12764e-10 -8.25172e-11 3.83336e-10 
4.50886e-10 6.3446e-11 -5.28537e-09 -3.85499e-08 -1.92122e-07 -7.8466e-07 -2.76631e-06 -8.579e-06 -2.35174e-05 -5.67333e-05 
-0.000118698 -0.000208424 -0.000282454 -0.000205969 0.000292143 0.00162387 0.00430976 0.00900121 0.0165689 0.0276908 
0.040713 0.0479035 0.0351981 -0.00625264 -0.0598768 -0.0823098 -0.0453852 0.0166227 0.0372496 0.009553 
-0.00895116 -0.00146878 -0.00436394 -0.00732273 0.0112678 0.00648982 -0.015102 0.00300595 0.010043 -0.0103478 
0.00277154 0.00355394 -0.00549077 0.00461254 -0.00304709 0.00179297 -0.000996324 0.000530663 -0.000268064 0.000126391 
-5.50211e-05 2.20188e-05 -8.10152e-06 2.7475e-06 -8.61836e-07 2.50988e-07 -6.81077e-08 1.72788e-08 -4.11081e-09 9.19663e-10 
-1.93949e-10 3.86425e-11 -7.28852e-12 1.3038e-12 -2.21577e-13 3.58325e-14 -5.52262e-15 8.12472e-16 -1.14296e-16 1.5416e-17 
-2.00607e-18 2.56826e-19 -3.43926e-20 5.55876e-21 -1.2514e-21 3.675e-22 -1.17677e-22 4.07095e-23 9.30256e-24 1.38488e-22 
8.61667e-22 5.38101e-21 3.27741e-20 1.9462e-19 1.12469e-18 6.31172e-18 3.43103e-17 1.80108e-16 9.09569e-16 4.39834e-15 
2.02433e-14 8.79793e-14 3.57195e-13 1.33398e-12 4.47516e-12 1.29513e-11 2.9784e-11 4.28012e-11 -1.2035e-11 -1.77835e-10 
-7.91228e-10 -2.86643e-09 -9.01782e-09 -2.2453e-08 -3.29898e-08 5.68973e-08 7.11469e-07 3.61035e-06 1.37693e-05 4.38454e-05 
0.000120885 0.000293432 0.000634251 0.00123811 0.0022353 0.00386618 0.00660839 0.0110999 0.0173008 0.022781 
0.0221127 0.0114387 -0.00158987 0.00500826 0.045569 0.0922529 0.0851816 0.0110712 -0.0528702 -0.0380446 
0.00760486 0.0130177 0.00689263 0.0106638 -0.0141541 -0.0177417 0.0249751 0.0039558 -0.0251063 0.0178316 
0.00105631 -0.0126611 0.0138682 -0.0102397 0.00642884 -0.00385647 0.00230305 -0.001341 0.000733304 -0.000367563 
0.000167408 -6.93009e-05 2.61833e-05 -9.07721e-06 2.90295e-06 -8.60623e-07 2.37547e-07 -6.12752e-08 1.48197e-08 -3.37013e-09 
7.22415e-10 -1.46289e-10 2.80391e-11 -5.09571e-12 8.79464e-13 -1.44355e-13 2.25644e-14 -3.36288e-15 4.7827e-16 -6.48953e-17 
8.36477e-18 -1.00411e-18 1.0315e-19 -5.06861e-21 -1.94823e-21 1.06977e-21 -3.87211e-22 1.19188e-22 -5.27061e-23 -1.03865e-22 
-7.26816e-22 -4.51287e-21 -2.74133e-20 -1.62013e-19 -9.29852e-19 -5.17021e-18 -2.77707e-17 -1.43592e-16 -7.1164e-16 -3.36206e-15 
-1.5035e-14 -6.30489e-14 -2.44718e-13 -8.62551e-13 -2.67877e-12 -6.94799e-12 -1.33994e-11 -1.28945e-11 1.15927e-11 -3.63452e-11 
2.98254e-10 1.82915e-09 8.58455e-09 3.46959e-08 1.22229e-07 3.74529e-07 9.78416e-07 2.06068e-06 2.8839e-06 -7.07867e-07 
-2.21115e-05 -9.35433e-05 -0.000276353 -0.000667959 -0.00142147 -0.00285667 -0.00579497 -0.0120611 -0.0243709 -0.0440212 
-0.066045 -0.0767999 -0.0635637 -0.0356311 -0.0292492 -0.0655475 -0.0986268 -0.0556653 0.0404309 0.0719572 
0.0125726 -0.0283946 -0.0171262 -0.0110191 0.014538 0.0326098 -0.0304778 -0.0225984 0.0468676 -0.0205155 
-0.0160158 0.0314314 -0.0275431 0.0181977 -0.0112361 0.00733865 -0.0049867 0.00324338 -0.00191315 0.00100693 
-0.000473722 0.000200739 -7.72741e-05 2.72353e-05 -8.84812e-06 2.66469e-06 -7.47426e-07 1.96031e-07 -4.82344e-08 1.11656e-08 
-2.43753e-09 5.02881e-10 -9.82259e-11 1.81945e-11 -3.20069e-12 5.35444e-13 -8.52886e-14 1.29513e-14 -1.87779e-15 2.60669e-16 
-3.48916e-17 4.5964e-18 -6.29446e-19 9.98895e-20 -2.0321e-20 5.11576e-21 -1.40723e-21 3.89463e-22 -8.92718e-23 1.14439e-22 
5.58843e-22 3.51866e-21 2.13001e-20 1.25268e-19 7.1381e-19 3.93053e-18 2.08467e-17 1.06077e-16 5.15289e-16 2.37468e-15 
1.02973e-14 4.15552e-14 1.53671e-13 5.08943e-13 1.45525e-12 3.365e-12 5.48407e-12 4.45822e-12 6.55423e-12 8.87286e-11 
1.67989e-10 1.97251e-10 -1.11847e-09 -1.1601e-08 -6.64108e-08 -2.9779e-07 -1.13225e-06 -3.7586e-06 -1.10334e-05 -2.8838e-05 
-6.75853e-05 -0.000144047 -0.000287642 -0.00056415 -0.00112879 -0.00225712 -0.00411466 -0.00583613 -0.00389641 0.00845911 
0.0368328 0.0750192 0.0984337 0.0814484 0.0362123 0.0187312 0.0555848 0.0769603 0.00855398 -0.0753854 
-0.0493219 0.0297775 0.036119 0.00929471 -0.013633 -0.0419265 0.0229203 0.0500611 -0.0629344 0.00658912 
0.0464223 -0.0570707 0.0411071 -0.0243961 0.0159969 -0.0127079 0.0102645 -0.00739051 0.00460055 -0.00249401 
0.00119508 -0.000513388 0.000200062 -7.13952e-05 2.35091e-05 -7.18585e-06 2.04876e-06 -5.46972e-07 1.37176e-07 -3.2402e-08 
7.22445e-09 -1.52334e-09 3.04273e-10 -5.76553e-11 1.03775e-11 -1.77638e-12 2.89487e-13 -4.49495e-14 6.65176e-15 -9.3683e-16 
1.24775e-16 -1.53742e-17 1.62147e-18 -9.59363e-20 -1.97421e-20 1.12614e-20 -3.71791e-21 1.03831e-21 -2.75107e-22 -6.63543e-25 
-4.23073e-22 -2.53921e-21 -1.53521e-20 -8.98303e-20 -5.08103e-19 -2.76972e-18 -1.44977e-17 -7.25444e-17 -3.45083e-16 -1.54939e-15 
-6.50511e-15 -2.52188e-14 -8.86877e-14 -2.75624e-13 -7.26719e-13 -1.52042e-12 -2.28968e-12 -2.88624e-12 -1.02171e-11 -3.26603e-11 
-2.03173e-10 -8.85073e-10 -3.24614e-09 -9.63945e-09 -1.9784e-08 -1.55782e-09 2.42684e-07 1.55075e-06 6.79189e-06 2.43065e-05 
7.5192e-05 0.000207042 0.000519439 0.00121667 0.00272441 0.00590775 0.0122823 0.0236499 0.040043 0.0556053 
0.0559602 0.0256587 -0.0305335 -0.0727104 -0.0556903 0.00361999 0.0213661 -0.032194 -0.0556989 0.0174624 
0.0651359 -0.000456057 -0.0461099 -0.00986245 0.0135357 0.0326373 -0.00189157 -0.0650101 0.0512421 0.0281915 
-0.0798145 0.0717417 -0.0404213 0.0213358 -0.0185836 0.0206677 -0.0196556 0.0151029 -0.00964941 0.00529116 
-0.00255195 0.00110261 -0.000432701 0.000155855 -5.19416e-05 1.61157e-05 -4.6772e-06 1.27441e-06 -3.26924e-07 7.91348e-08 
-1.81072e-08 3.92241e-09 -8.05444e-10 1.56966e-10 -2.90627e-11 5.11771e-12 -8.57997e-13 1.37122e-13 -2.0929e-14 3.06204e-15 
-4.33091e-16 6.04075e-17 -8.66526e-18 1.36749e-18 -2.51673e-19 5.35348e-20 -1.23072e-20 2.86651e-21 -6.44445e-22 1.84715e-22 
2.44411e-22 1.70794e-21 1.02488e-20 5.96805e-20 3.35057e-19 1.80778e-18 9.3361e-18 4.5922e-17 2.13802e-16 9.34727e-16 
3.79776e-15 1.41408e-14 4.73294e-14 1.38531e-13 3.40887e-13 6.71061e-13 1.05467e-12 1.80379e-12 3.40937e-12 -1.74086e-11 
1.41089e-11 2.96852e-10 1.98194e-09 1.00498e-08 4.22172e-08 1.50425e-07 4.51042e-07 1.08494e-06 1.74674e-06 -3.27447e-07 
-1.64748e-05 -8.12756e-05 -0.000281669 -0.000808572 -0.00205247 -0.00480668 -0.0106788 -0.0226135 -0.0445942 -0.0783535 