# vtk DataFile Version 2.0
Titre
ASCII
DATASET STRUCTURED_POINTS
DIMENSIONS 100 100 1
ORIGIN 0.0 0.0 0.0
SPACING 0.1 0.1 0.0
POINT_DATA 10000 
SCALARS rho float
LOOKUP_TABLE default
-0.00046991 0.000503127 0.0039717 0.00463791 0.0042036 0.00232856 -0.000864808 -0.00261915 -0.00458727 -0.00288833 
-0.00156767 8.16871e-05 0.00092283 0.00113308 0.000417416 -0.00198457 -0.00157448 3.369e-05 0.00125122 0.000206388 
-0.00057046 -0.000630671 -0.000603481 0.0008454 0.000535274 -0.000602417 -0.000979413 0.00130987 0.000153126 -0.000701542 
3.43023e-05 0.000849085 -0.000466312 -5.64258e-05 0.000371924 -2.25234e-05 -0.000117276 0.000140537 5.07288e-05 -9.41791e-05 
4.37291e-05 1.77339e-05 -5.87826e-05 -2.20022e-06 1.53974e-05 -5.36721e-05 1.95806e-05 -6.57501e-06 -2.05046e-05 2.09978e-05 
-1.89503e-05 4.28869e-06 -2.09499e-06 -1.1051e-05 2.76975e-06 -1.00637e-05 1.41076e-06 -1.79564e-06 2.52742e-06 5.75283e-06 
6.14125e-06 9.9485e-06 8.72653e-06 1.04158e-05 8.04815e-06 7.61954e-06 4.35225e-06 2.97712e-06 -3.76602e-07 -1.45393e-06 
-4.00828e-06 -4.65304e-06 -7.29415e-06 -1.17616e-05 -2.30546e-05 -5.03277e-05 -0.000102618 -0.000208873 -0.000383812 -0.000680235 
-0.0010997 -0.00168277 -0.00234967 -0.00303501 -0.00351491 -0.00360733 -0.0031426 -0.00214608 -0.00100576 -0.000139347 
-0.000210704 -0.000843085 -0.00162599 -0.00111038 0.000458469 0.00207412 0.00136235 -0.000417138 -0.00233712 -0.000280726 
-0.000442254 0.00217526 0.00185845 0.000649679 -0.000817828 -0.000906972 -0.00199896 -0.00206078 -0.000954088 0.000781304 
-0.000244829 5.44035e-05 0.000183922 0.000685818 -0.00211178 -0.00184182 0.00140928 0.00203697 -0.000223631 -0.00181981 
-0.000137838 -0.000105981 0.000814845 0.000773926 -0.00108978 -0.00145243 0.00178627 0.000830735 -0.00191574 -9.62342e-05 
0.00176683 -0.00100862 -0.000556844 0.000799481 3.39576e-05 -0.00064632 0.000443368 -3.61963e-06 -0.000182376 3.37025e-05 
0.000104757 -0.000105507 -1.44995e-05 9.2577e-05 -8.64682e-05 1.6077e-05 4.56105e-05 -6.68675e-05 4.51123e-05 -1.1263e-05 
-1.9806e-05 2.96639e-05 -2.75475e-05 1.80517e-05 -2.27035e-06 2.5757e-06 1.41636e-05 1.73291e-06 1.59797e-05 4.9093e-06 
9.76368e-06 2.5684e-06 -5.33315e-08 -5.27193e-06 -1.01657e-05 -1.39255e-05 -1.7691e-05 -2.00489e-05 -2.22247e-05 -2.43735e-05 
-2.66559e-05 -3.05188e-05 -3.44271e-05 -3.94854e-05 -4.12466e-05 -3.74293e-05 -1.97441e-05 1.90008e-05 8.41886e-05 0.000175852 
0.000268161 0.000318794 0.000237937 -6.24065e-05 -0.000655792 -0.00151349 -0.00242389 -0.00306837 -0.0029972 -0.00218046 
-0.000829166 2.41109e-05 -7.40702e-05 -0.00130349 -0.00198913 -0.00139869 0.000501832 0.00092065 0.000550026 -0.000351631 
0.00365704 0.00284336 0.00354299 0.00116657 0.00298154 0.000736819 -0.00171811 -0.00284302 -0.00181723 -0.00298823 
-0.00138818 0.00133161 0.00347558 0.00059675 -0.00250404 0.000686105 0.000866826 -0.000711684 -0.00190657 0.00139387 
0.000881795 -0.00102551 0.000128274 -0.000414162 -0.00059821 0.000641278 0.00145833 -0.00263467 0.000230034 0.0018842 
-0.000777559 -0.00164735 0.00186356 -0.000182802 -0.00104539 0.000680101 0.000219037 -0.000538003 0.000194955 0.000173085 
-0.000210228 2.65248e-05 9.87447e-05 -6.41042e-05 -4.83241e-05 0.000114703 -9.31236e-05 1.79045e-05 5.00077e-05 -7.58319e-05 
6.43594e-05 -2.61586e-05 3.85048e-07 2.7994e-05 -2.34457e-05 2.82507e-05 -1.34712e-05 5.85744e-06 -6.80294e-06 -1.28045e-05 
-1.09212e-05 -2.15791e-05 -1.56467e-05 -2.033e-05 -1.27453e-05 -1.03322e-05 -1.35744e-06 5.75267e-06 1.60812e-05 2.66329e-05 
3.98178e-05 5.53096e-05 7.37432e-05 9.4192e-05 0.000112571 0.00012145 0.000106036 4.64756e-05 -8.23514e-05 -0.000302527 
-0.000620601 -0.00101439 -0.00141573 -0.00171632 -0.00179455 -0.00156021 -0.00105825 -0.000428888 5.24795e-06 0.00011009 
-0.000182377 -0.000380095 -0.000176428 0.000773232 0.00171812 0.00197693 0.000503891 -0.00159925 -0.00296231 -0.000169727 
0.000506332 -0.00150207 -0.00258078 -0.000221109 0.000161762 -0.000826091 -0.000885739 0.00195238 0.00105244 -0.000554449 
0.00175075 0.00171672 0.000837909 -0.00445262 -0.000386247 0.00137896 0.000188626 -0.000640372 0.00115793 0.0012536 
-0.00332372 -0.000336186 0.00163392 0.000587473 -0.00146688 0.000660537 -0.000921025 6.49303e-05 0.00152863 -0.00089448 
-0.00171605 0.00230254 -0.000128066 -0.00170571 0.0010658 0.000664976 -0.00133168 0.000625541 0.000263274 -0.000469477 
0.000141418 0.000153848 -0.000151381 -1.46369e-05 0.000115758 -7.35632e-05 -3.62849e-05 0.000111916 -0.00010493 4.60823e-05 
2.52703e-05 -6.44484e-05 6.99983e-05 -5.38039e-05 1.76703e-05 -8.14448e-06 -2.68807e-05 6.30363e-06 -3.35461e-05 1.82861e-06 
-1.92987e-05 1.73539e-06 -4.43701e-07 9.48662e-06 1.37763e-05 1.59987e-05 1.68313e-05 1.13059e-05 3.13072e-06 -1.28326e-05 
-3.47514e-05 -6.6399e-05 -0.000107082 -0.000157027 -0.000211197 -0.000260083 -0.000286757 -0.000268698 -0.000183304 -1.83012e-05 
0.000209684 0.000443126 0.000575849 0.000483893 8.44851e-05 -0.000578196 -0.00125499 -0.00156744 -0.00113424 -2.96516e-06 
0.00131832 0.00182849 0.00104918 -0.000505882 -0.00111613 0.00019566 0.00223856 0.00180927 -0.00124011 -0.00316112 
0.00113734 -0.00212445 0.000909773 0.00276669 0.00050405 -0.00026435 -1.69478e-05 -0.000941193 -0.00557212 -0.00268628 
0.000731819 0.00323371 0.000253262 -0.000215604 0.00219463 -0.00104247 -0.00118529 -0.000150087 0.00117404 -0.00208742 
-0.00101031 0.00346645 2.3077e-05 -0.00260344 -0.000872719 0.0025932 -0.000669663 0.000211286 -0.00110775 -0.000123557 
0.00142957 0.000178115 -0.00246013 0.00183209 0.000793385 -0.00198519 0.000749371 0.000933849 -0.00125033 0.000384846 
0.000436376 -0.000539415 0.000174424 0.000126273 -0.000136884 -1.43234e-05 0.000119577 -9.364e-05 -1.10831e-05 9.96984e-05 
-0.000127 8.38055e-05 -2.83438e-05 -3.59426e-05 5.44647e-05 -6.50327e-05 4.84364e-05 -2.35779e-05 2.22357e-05 1.81758e-05 
1.45763e-05 3.58106e-05 1.69945e-05 3.36463e-05 1.60284e-05 2.3449e-05 1.38088e-05 2.13963e-05 2.72623e-05 4.97504e-05 
8.2615e-05 0.0001357 0.000206479 0.000296173 0.000395391 0.000489078 0.000550393 0.000545221 0.000438834 0.000209756 
-0.000129018 -0.000517491 -0.000842799 -0.000975368 -0.000821962 -0.000405296 0.000105853 0.00046574 0.000493513 0.000310559 
0.000257061 0.000743482 0.00164273 0.00237362 0.00230397 0.00159248 0.000876039 -3.26886e-05 -0.00186746 -0.00237843 
-0.00169815 -0.0039329 0.00127379 0.000159171 -0.000384442 0.00293735 0.00356686 -0.000237163 -0.000244875 0.00231527 
0.00313686 5.73375e-05 -0.00391546 -0.000787093 -0.00117404 -0.000189874 0.00123263 0.00134243 -9.30104e-06 -0.00200933 
0.00194537 -0.000385992 -0.00194406 -0.000439255 0.00361671 -0.000920956 -0.00226604 0.000343008 0.00141738 0.000198061 
-0.000722796 -0.00135155 0.00175413 0.000832285 -0.00249863 0.000842944 0.00174322 -0.00213894 0.000424534 0.00114036 
-0.00118605 0.00024494 0.000497561 -0.000529354 0.00015098 0.000143507 -0.000156513 -4.49459e-08 0.000126143 -0.000132257 
4.0456e-05 6.47516e-05 -0.000121642 0.000128045 -7.35746e-05 3.92321e-05 2.99459e-05 -2.54527e-05 6.26692e-05 -3.20703e-05 
3.86567e-05 -2.46967e-05 1.70941e-06 -2.74082e-05 -2.75276e-05 -3.96964e-05 -5.1169e-05 -6.46732e-05 -9.03825e-05 -0.000125859 
-0.000183681 -0.000263555 -0.000371637 -0.000502695 -0.000646521 -0.000779419 -0.000866703 -0.000865704 -0.000738347 -0.000469624 
-9.12005e-05 0.000307183 0.00058478 0.000604489 0.000309535 -0.000184413 -0.000581379 -0.000506605 0.000242429 0.0014631 
0.00251923 0.00269893 0.00182163 0.000591022 0.000185805 0.00128026 0.00291977 0.00295278 -0.000438955 -0.00477697 
-0.0052975 -0.0009062 -0.00108038 -0.00181222 -0.000528795 0.00270989 -0.00321293 -0.00505518 -0.00328972 -0.000905237 
0.00166777 -6.04911e-05 0.00270128 0.00247271 1.2011e-05 3.69761e-05 -0.00141373 -0.000252483 -0.000806595 -4.28469e-05 
0.00083701 -0.000621258 0.00110825 0.000451992 -0.000551312 -0.0029425 0.00253206 0.00164924 -0.00149009 -0.00174004 
0.00134809 0.000982492 -0.000156324 -0.00207529 0.001242 0.00167322 -0.00238331 6.04775e-05 0.00217053 -0.00192639 
3.64576e-05 0.00131168 -0.00116565 0.000214033 0.000473296 -0.000496129 0.000144474 0.00014082 -0.000167285 2.22499e-05 
0.000130417 -0.000170601 0.000117968 -7.21767e-06 -7.73245e-05 0.000120391 -0.000126758 7.68507e-05 -7.05813e-05 -1.00403e-05 
-2.37517e-05 -5.2838e-05 -6.9677e-06 -4.78871e-05 5.01281e-06 -1.42746e-05 3.31787e-05 4.26129e-05 9.64105e-05 0.000143252 
0.000228247 0.000329584 0.000467453 0.000624807 0.000794098 0.000940994 0.00102648 0.00100021 0.000824044 0.000489385 
4.27967e-05 -0.000407856 -0.000711826 -0.000738259 -0.000453448 1.58642e-05 0.000412433 0.000507191 0.000286675 0.000111233 
0.000453198 0.00153477 0.00282711 0.00338591 0.00269304 0.00143906 0.00102961 0.00148662 0.000968359 -0.00231985 
-0.00258816 0.000972291 -0.00158796 0.00116575 0.00488347 0.00434082 -0.000665263 0.00188437 0.000394551 0.00283716 
3.93077e-05 -0.00126933 -0.00223447 -0.00364748 -0.000860633 0.000893157 0.00114599 0.00277963 -0.00100114 -0.000435929 
-0.000539169 0.00140867 -0.00158448 -0.000631072 0.000227057 0.0021545 0.000406633 -0.00300317 -0.000566489 0.00319629 
0.000105419 -0.00254627 0.000153371 0.00165185 0.000424256 -0.00223773 0.000426909 0.00232295 -0.00217989 -0.0004423 
0.00230044 -0.001706 -0.000164404 0.00134396 -0.00114267 0.000244869 0.000412311 -0.000471412 0.000166629 0.000119665 
-0.000187357 6.71373e-05 9.06856e-05 -0.00019723 0.000181243 -0.000127747 1.48165e-05 4.15055e-05 -9.60604e-05 0.00010616 
-7.74053e-05 9.65774e-05 -1.08161e-05 7.81905e-05 3.79673e-05 6.36018e-05 4.58585e-05 3.20081e-05 2.29225e-07 -5.19755e-05 
-0.000126974 -0.000233822 -0.000370955 -0.000533386 -0.000703175 -0.000846519 -0.000918933 -0.000869173 -0.000662646 -0.000300848 
0.000153912 0.000579477 0.000824112 0.000778344 0.000454718 4.56624e-05 -0.00015687 0.000128344 0.000876159 0.00179124 
0.00232762 0.00221198 0.0015911 0.00104982 0.00106262 0.00170665 0.00247589 0.00253809 0.000789207 -0.00197992 
-0.00406553 -0.00192322 -0.00396135 0.00028078 0.00235281 -0.00301575 -0.000980119 -0.00371853 -0.00153256 0.000909179 
0.00158006 0.00333009 0.00156924 0.0033745 0.00222747 -0.00239922 -0.0011428 -0.00094289 -0.00192374 0.000515205 
0.00217644 -9.06643e-05 -0.00188841 0.00237577 0.000184289 -0.00161739 -0.0017129 0.00178968 0.00257916 -0.00167943 
-0.00321937 0.00246211 0.00224327 -0.00239332 -0.00124361 0.00183498 0.00105513 -0.00214517 -0.000322943 0.00269888 
-0.0019216 -0.000792522 0.00237718 -0.00164304 -0.000150935 0.00126797 -0.00113582 0.000339112 0.00030255 -0.000435115 
0.000194567 8.94709e-05 -0.000216159 0.000154445 2.61554e-06 -0.000134545 0.00022304 -0.000192061 0.000173621 -6.56436e-05 
3.95618e-05 2.67629e-05 -5.10572e-05 2.26943e-05 -0.000102335 -3.75609e-05 -0.000138798 -9.82039e-05 -0.000149677 -0.000104502 
-8.67669e-05 4.77561e-06 0.000108662 0.000263543 0.000422734 0.000569711 0.000645534 0.000604508 0.000408388 6.47759e-05 
-0.000360171 -0.000743156 -0.000941536 -0.00086257 -0.00054565 -0.000146313 6.79216e-05 1.87816e-05 -0.000215908 -0.000183032 
0.000420638 0.00160383 0.00271426 0.0029835 0.00217018 0.00106184 0.000907377 0.00180182 0.00173192 -0.00166279 
-0.00564666 -0.000317176 -0.00313154 0.00396867 0.000733316 0.00192311 0.00175186 -0.0037726 0.00206583 -0.00119545 
0.000270246 -0.00472703 -0.00349367 -0.000618021 -0.00267858 -0.000478529 0.00597805 0.00136635 -0.000574737 -0.000425964 
0.00079698 -0.00319007 0.00153205 0.000714812 -0.00199926 0.000582346 0.00270448 -0.000628247 -0.00273172 -0.000620661 
0.0034365 0.00108337 -0.00446842 0.00043692 0.00361996 -0.0013745 -0.00234287 0.00154712 0.00162274 -0.00194771 
-0.000838962 0.00280451 -0.00166604 -0.000986445 0.00240315 -0.00169165 1.38721e-05 0.00111076 -0.00113117 0.000479757 
0.000150375 -0.000371272 0.000233383 4.62522e-05 -0.000224614 0.000264969 -0.000158161 2.1219e-05 0.000102237 -0.000183025 
0.000188192 -0.000185656 0.00014625 -8.20068e-05 0.000121951 5.0981e-05 0.000171667 0.000186511 0.000261796 0.000283918 
0.000300776 0.000259063 0.000178433 3.62964e-05 -0.000132201 -0.000307365 -0.000424564 -0.000435517 -0.000292822 -2.51863e-06 
0.00037525 0.000719732 0.000894741 0.00083183 0.000542723 0.000251668 0.000105123 0.000335111 0.000758128 0.00121691 
0.00137866 0.00128743 0.00112389 0.00111509 0.00120094 0.00122008 0.00124282 0.00152047 0.00151284 -0.000539353 
-0.00192245 0.000480129 -0.000599842 0.00217303 0.00157975 0.00462152 -0.00315661 -0.000490877 0.00330202 0.00248484 
0.00343038 0.000935891 0.00646079 0.00288331 -0.0033555 0.000879931 -0.00116191 -0.00571025 -0.00172045 0.00366328 
0.000838122 -0.000819615 0.00219251 -0.00172682 -0.000112604 0.00180372 -0.00228217 -0.00164501 0.00290428 0.00189721 
-0.00223593 -0.0028648 0.00208464 0.00395256 -0.00408374 -0.00193027 0.00423537 -0.000303432 -0.00284195 0.00104264 
0.00198719 -0.00171917 -0.00112867 0.00279445 -0.00156627 -0.000943994 0.00233134 -0.00180874 0.000317497 0.000837362 
-0.00106575 0.000609611 -2.59203e-05 -0.000298569 0.000270974 -7.00718e-05 -0.000186961 0.000290142 -0.000346922 0.000224817 
-0.00017584 3.68986e-06 -1.60008e-05 -0.000147263 -7.86645e-06 -0.000243711 -0.000131181 -0.000356775 -0.000316134 -0.000475678 
-0.000448839 -0.000484617 -0.000377235 -0.00024813 -2.95318e-05 0.000192649 0.000386211 0.000470043 0.000397021 0.000156858 
-0.000193176 -0.0005323 -0.00074208 -0.000692425 -0.000489558 -0.000149412 -1.0314e-05 1.4235e-05 -0.000138532 -8.27435e-05 
0.000278654 0.000953236 0.00155443 0.00170463 0.00127533 0.000603772 0.000307701 0.000718837 0.00118411 0.000341286 
-0.00245354 -0.00319935 -0.00239391 -0.00216227 0.00536901 -0.00304151 -0.00487862 -0.000523186 -0.000946617 -0.00244607 
-0.0050646 -0.00265651 0.000710532 -0.00521662 -0.00130412 0.00719055 0.00177658 0.00168173 0.00276451 0.000570061 
-0.00600756 0.000861844 0.000498944 -0.000971426 0.00128319 3.81132e-05 -0.00128143 0.00331914 -0.0009851 -0.00374331 
0.00110597 0.00341324 6.55141e-05 -0.00402757 -0.000452702 0.0056503 -0.00236128 -0.00410245 0.00433953 0.000568743 
-0.00303841 0.000714914 0.00203902 -0.00147662 -0.00125008 0.00275964 -0.00165464 -0.00067159 0.00214084 -0.00194971 
0.000730587 0.000419289 -0.000881411 0.000667049 -0.000184809 -0.000209102 0.000349152 -0.000236631 6.55714e-05 0.000192361 
-0.000239475 0.000411707 -0.000232064 0.000407057 -4.4184e-05 0.000389643 0.000191156 0.00046782 0.000425426 0.00059948 
0.000579211 0.000620144 0.000492582 0.000341977 6.39229e-05 -0.000215621 -0.000489466 -0.000637264 -0.000618188 -0.000401844 
-5.37392e-05 0.000331635 0.00054179 0.000604101 0.000331701 0.000110211 -0.000150814 -5.81283e-05 0.00014953 0.000492483 
0.000719909 0.000843278 0.000865284 0.000791849 0.000572029 0.000265077 0.000139442 0.000394855 0.000527648 -0.000814527 
-0.00518917 -0.00184595 -0.00410769 0.00510385 0.00497387 -0.00503432 0.00284488 0.00241872 0.00312882 0.000581885 
0.00166427 0.00577421 0.00221098 -0.00479257 0.00196143 -0.00211218 -0.00714994 -0.00328739 0.00096058 -0.000598547 
0.00243713 0.00515498 -0.00264905 -0.000971832 0.00132611 -0.00170705 0.000359206 0.000278556 -0.00253219 0.00341374 
0.00219183 -0.00455617 -0.00115998 0.00286859 0.00268557 -0.00347315 -0.00325725 0.00612761 -0.000299688 -0.00556737 
0.00409597 0.00117472 -0.00311036 0.000645872 0.00186401 -0.00129614 -0.001198 0.0026914 -0.00189211 -0.000173117 
0.00176238 -0.00198655 0.00116078 -8.88126e-05 -0.000543464 0.000634445 -0.000296888 -7.85793e-05 0.000380889 -0.000464626 
0.000385316 -0.000297071 2.95873e-05 -9.38875e-05 -0.000279358 -0.000106989 -0.000484959 -0.000302715 -0.000650997 -0.000543255 
-0.000741864 -0.000626191 -0.000588278 -0.000343082 -6.57354e-05 0.000285484 0.000598325 0.000790101 0.000793737 0.000581868 
0.000187142 -0.000169507 -0.000520077 -0.000442716 -0.000338971 0.000108464 0.00028437 0.000401882 0.000212314 2.89811e-05 
-4.37974e-05 0.000139222 0.000488911 0.000760273 0.000637485 4.58475e-05 -0.000546131 -0.00038958 0.000453203 3.72843e-05 
0.000578919 -0.00244955 0.00173381 0.00858705 -0.00298344 -0.00092953 0.00229838 -0.000161334 -0.0015054 -0.00280079 
-0.000230948 0.00265118 -0.00347915 0.000327008 0.00717162 0.00168558 0.00443033 0.00484157 0.00109932 -0.00483946 
-0.000143634 -0.00417487 -0.00220413 0.00419292 0.000759978 -0.00219884 0.0027704 -0.00102629 6.36681e-05 0.000912917 
-0.00420704 0.0014292 0.00535219 -0.00344457 -0.00294336 0.00119997 0.00414933 -0.00151522 -0.00568555 0.00589024 
0.00141216 -0.0064182 0.00395318 0.00129503 -0.00300822 0.00074514 0.00155821 -0.0011892 -0.000999815 0.00257083 
-0.00222796 0.000541704 0.001093 -0.00176639 0.00139955 -0.000595929 -0.000184259 0.000469522 -0.000497351 0.000124484 
9.86102e-05 -0.00044619 0.000506917 -0.000550193 0.000578178 -0.000296029 0.00058886 7.93146e-05 0.000684829 0.000424479 
0.000778357 0.000570313 0.000634573 0.000317938 9.14874e-05 -0.000316422 -0.000614462 -0.000840216 -0.000842401 -0.000591116 
-0.000271079 0.000272873 0.000387916 0.000589819 0.000167452 -7.12613e-05 -0.000472416 -0.000465015 -0.000260586 0.000156886 
0.000527674 0.000696474 0.000591473 0.000279561 -8.99642e-05 -0.000406299 -0.000613472 -0.000633607 -0.000465439 8.52934e-06 
-0.00189988 -0.00782272 0.00533042 -0.00388213 -0.00497386 0.000640624 -0.0014545 -0.00108177 -0.00256117 -0.000527553 
0.000183329 0.000768784 -0.00649418 0.000590957 -0.0051058 -0.00625282 -0.00308948 -0.00213714 -0.00228216 0.0042012 
0.00640507 -0.000376071 0.00275782 -0.000396851 -0.00540939 0.00117935 0.0021297 -0.00367045 0.00216579 0.000408324 
-0.00016825 0.00300291 -0.00480225 -0.00203926 0.00680292 -0.0010692 -0.00367749 -0.000667528 0.00430605 0.000880213 
-0.00738294 0.00540798 0.00254554 -0.00693909 0.00421135 0.000825591 -0.00265598 0.00089011 0.00119297 -0.0011391 
-0.00067026 0.00233195 -0.00253159 0.00139168 0.000141005 -0.00112052 0.00132782 -0.00080718 0.000238499 0.000444241 
-0.000523976 0.000769131 -0.000345531 0.000420033 3.22687e-05 1.51102e-05 0.000111468 -0.000284664 -0.000122099 -0.000518232 
-0.000435014 -0.000609802 -0.000499498 -0.000358365 -9.48955e-05 0.000258648 0.0005603 0.000794418 0.000742615 0.000640876 
5.39426e-05 -0.000104403 -0.000673441 -0.000405043 -0.000356288 0.000208248 0.000458416 0.000588149 0.000363706 2.20474e-06 
-0.000279632 -0.000270642 3.58881e-05 0.000359563 0.000277595 -0.000373946 -0.00112386 -0.00110652 -0.000490917 -0.00160182 
-0.00779471 -0.00043 0.00240164 -0.00526374 0.00453008 0.00149862 0.000897708 0.00161822 0.00141629 0.00127974 
0.0030641 0.00246221 0.00179091 0.00656172 0.00100464 0.00694164 0.00390382 1.26234e-05 -0.00285483 -0.00035143 
-0.00810514 -0.00465825 0.00303475 -0.000242562 0.00157437 0.00535662 -0.00375021 -0.00103574 0.00385767 -0.00398064 
-0.000272935 0.00104221 -0.00122555 0.00546163 -0.00336354 -0.00549126 0.00642244 0.00113516 -0.00322407 -0.00224482 
0.00368986 0.0029568 -0.00845695 0.00520183 0.00287853 -0.00714688 0.00485147 -0.000226149 -0.00191404 0.000857038 
0.000926857 -0.00121067 -0.000142577 0.00180711 -0.00255622 0.00207142 -0.000934345 -0.000242238 0.00077825 -0.000953277 
0.000385709 -0.000169478 -0.000661631 0.000493164 -0.00116138 0.000619244 -0.00105236 0.000568965 -0.000608779 0.000611 
-8.24786e-05 0.00066618 0.000221973 0.000452041 3.81126e-05 -0.000142309 -0.00051763 -0.000638075 -0.000836635 -0.000344252 
-0.000373758 0.000495911 0.000351962 0.000713309 0.000222802 -5.79041e-05 -0.000470724 -0.000548315 -0.000342482 5.87835e-05 
0.000418655 0.000517449 0.000309475 -5.0635e-05 -0.000355243 -0.000593713 -0.000942422 -0.00122629 -0.00055724 -0.000143745 
0.00130352 0.00556775 -0.00178043 0.00485787 0.00436323 -0.00118421 0.000560629 0.00191195 -0.00139284 -0.00277757 
0.00041058 -0.00271631 -0.00168243 -0.00546577 -0.00350635 -0.000350082 -0.00287277 -0.00111969 0.00634443 0.00619156 
0.00157799 0.00725412 0.000649417 -0.00691661 -0.0004755 -0.00116214 -0.00399649 0.005694 -0.000576185 -0.00300135 
0.00555833 -0.00178631 -0.00231786 0.0010305 -0.00342746 0.00676314 -0.000289324 -0.00797635 0.00520283 0.00229293 
-0.00205371 -0.00328735 0.00283433 0.00443544 -0.00925595 0.00571039 0.00215354 -0.00678697 0.00556998 -0.00170206 
-0.000682633 0.000401229 0.000978674 -0.0015417 0.000721518 0.000782095 -0.00190385 0.00216756 -0.00151811 0.000662963 
0.000393607 -0.000682861 0.00124393 -0.000645348 0.00105629 -6.70775e-05 0.000658508 0.000222448 0.000335944 4.61964e-05 
2.94053e-05 -0.000307064 -0.000178974 -0.000382908 -1.68557e-05 7.97567e-05 0.000413442 0.000805723 0.000467801 0.000913007 
-0.000138327 0.000104182 -0.000735881 -0.000457356 -0.000436194 3.3332e-05 0.000362766 0.000498651 0.000345842 7.71907e-06 
-0.00027454 -0.000299677 -5.7884e-05 0.00019218 8.43559e-05 -0.0004955 -0.00119139 -0.00151629 -0.00116171 0.000998551 
0.00476223 -0.00846493 -0.00207269 0.00268967 -0.008035 -0.0050188 -0.00102674 0.000353305 -0.0067832 -0.000698461 
0.00131526 0.00113811 -7.74535e-05 -0.00124542 0.00501289 -0.000370146 -0.00329676 -0.00351984 -0.0016691 -0.010802 
-0.00547331 0.00114498 -0.00285072 0.00369487 0.00890551 -0.00163604 -0.000292194 0.00243792 -0.00670535 0.00231176 
0.00156473 -0.00557653 0.00526471 0.00146863 -0.00271785 0.00150298 -0.00593957 0.00620894 0.00321928 -0.00923568 
0.00402494 0.00240441 -0.0007594 -0.00385256 0.00221185 0.00516339 -0.00991332 0.00706069 0.000157241 -0.0053602 
0.00568762 -0.00304168 0.000760745 -0.000418424 0.00134459 -0.00209981 0.00183584 -0.000761259 -0.000538105 0.00127485 
-0.0015373 0.000908451 -0.000516533 -0.000640308 0.000604589 -0.00167817 0.000963553 -0.00181932 0.000861663 -0.00130025 
0.000715521 -0.000513802 0.000588679 -2.26968e-05 0.000203801 -7.4585e-05 -0.000694114 -0.000269411 -0.00138216 -0.000141599 
-0.000853393 0.00039179 0.000247134 0.000664395 0.00041673 0.000103671 -0.000244935 -0.000419787 -0.000315365 -2.92333e-05 
0.00024606 0.000319797 0.000153933 -0.000112126 -0.000324694 -0.000530804 -0.000874505 -0.00119486 -0.00141902 -0.00164831 
-0.00675372 -0.0105269 0.00770769 -0.00163297 -0.00606241 0.00399417 0.00798091 0.00127501 -0.00236052 0.00630043 
0.00262012 0.00275999 -0.00303061 0.00329473 0.00387434 -0.000335078 0.00329935 0.00812965 0.00683104 0.00218616 
0.00916866 0.00070216 -0.00705913 -0.00102888 -0.00560973 -0.00712495 0.00570338 0.00127449 -0.00153759 0.00683477 
-0.00419881 -0.00051809 0.00399357 -0.00777278 0.00263856 0.00367721 -0.00219924 0.00304612 -0.00783647 0.00444112 
0.00596544 -0.00953575 0.00341913 0.00173069 0.000428344 -0.00427847 0.00227319 0.00485804 -0.0101182 0.00889316 
-0.00304193 -0.00238613 0.00428372 -0.00320436 0.00150434 -0.000863636 0.00139396 -0.00219181 0.00249057 -0.00191197 
0.000945042 0.000342062 -0.000979365 0.00178917 -0.00142644 0.00192526 -0.000994132 0.00160042 -0.000676071 0.00122149 
-0.00072831 0.000713191 -0.00076983 0.000301579 -0.000578421 0.00075368 -0.000293325 0.00169876 9.0359e-05 0.00161261 
0.000101263 0.000369917 -0.000430004 -0.00053562 -0.00049684 -0.000223437 0.000133926 0.0003336 0.000305331 9.09327e-05 
-0.000138492 -0.000210717 -8.73939e-05 7.66745e-05 2.28197e-05 -0.000394388 -0.00100783 -0.00124319 -0.000612219 -0.0015342 
-0.00565759 0.00894498 0.0109195 -0.00302801 -0.000244792 0.00975543 0.00550585 -0.00715588 0.000736008 0.00185104 
-0.00092389 -0.00254298 -0.00439527 0.00260967 -0.00477937 -0.0057569 -0.00362682 -0.00390374 -0.00952867 -0.00438452 
0.00199782 -0.00266789 0.00557482 0.0113826 0.000713254 0.00339169 0.00286597 -0.0095803 -0.000296798 0.00144613 
-0.00597846 0.00650884 -0.000212901 -0.00240167 0.00731517 -0.00773265 -0.000864732 0.00426153 -0.00213426 0.00536247 
-0.00881685 0.00256549 0.00743256 -0.00938983 0.00360222 0.000487965 0.0015582 -0.00490981 0.00335375 0.00307057 
-0.00901918 0.0100689 -0.00649227 0.00177839 0.0010538 -0.00142281 0.000584882 9.14819e-06 0.000191487 -0.000972129 
0.00159096 -0.00187211 0.00130959 -0.000760766 -0.000498846 0.000842748 -0.00193455 0.00156141 -0.00210851 0.0013558 
-0.00120787 0.000749867 -0.00013961 0.000464236 -0.000365652 0.000675845 -0.0016649 0.000301539 -0.00209123 -0.000419094 
-0.00109934 -0.000156744 0.000205405 0.000508958 0.000559906 0.000301868 -1.96027e-05 -0.000258999 -0.00029177 -0.000136257 
7.57495e-05 0.00018963 0.000128707 -4.85161e-05 -0.000219477 -0.000378403 -0.000701395 -0.00116411 -0.000729261 0.0013313 
0.00673885 0.00971605 -0.00452035 -0.00919673 -0.00428621 0.00417944 -0.00951439 -0.0109046 0.00200148 -0.00509193 
-0.00144227 -0.00422041 0.00151556 0.00216795 -0.00116384 0.00330673 0.00609467 0.00272618 0.000822865 0.00502208 
-0.0025527 -0.00916116 -0.00290896 -0.00851586 -0.00978471 0.00446106 0.00118946 0.000686286 0.0109863 -0.00301294 
-0.00197715 0.00422729 -0.0086681 0.00222571 0.0020701 -0.00480288 0.00992253 -0.00528617 -0.00349424 0.00391575 
-0.00306595 0.00769706 -0.00913712 0.00147802 0.00753161 -0.00902505 0.00439042 -0.001078 0.00265802 -0.00581281 
0.00545168 -0.000529267 -0.00551309 0.00869335 -0.00792177 0.00497039 -0.00229129 0.00108827 -0.00111335 0.00144537 
-0.00132681 0.000689412 0.000454952 -0.00137215 0.00244201 -0.00269691 0.00337084 -0.00309443 0.00345554 -0.0030648 
0.00287469 -0.00255253 0.00131287 -0.000686246 -0.000862728 0.00169807 -0.00124746 0.00243726 0.000197579 0.00165553 
0.000740318 0.000396037 -9.19291e-05 -0.000507986 -0.000551197 -0.000376663 -6.64316e-05 0.000194287 0.000280717 0.000183843 
-5.41873e-06 -0.000143648 -0.000130817 -9.57417e-06 2.77403e-05 -0.000198307 -0.000644796 -0.00108062 -0.00114447 0.00110848 
0.00534371 -0.00881234 -0.010354 -0.00522797 0.00206159 0.00579291 -0.00650924 0.00721618 0.00841851 0.00109404 
0.00633796 0.00306103 0.005982 -0.00057544 0.000820498 0.00121489 0.000389201 -0.0035267 0.00277078 0.00551577 
0.00207639 0.00882345 0.0131604 0.00179994 0.00480857 0.00290725 -0.0110969 -0.00372486 -0.000916428 -0.00900844 
0.00778705 0.00242007 -0.0027142 0.00890108 -0.0064675 -0.00166407 0.00316246 -0.0080024 0.0104327 -0.00207857 
-0.00443525 0.00346388 -0.00464792 0.00952662 -0.00935191 0.00175175 0.00614704 -0.00811894 0.00515653 -0.00249205 
0.00340902 -0.00642168 0.00767788 -0.00518207 0.000410458 0.00364436 -0.00510393 0.00427653 -0.00256262 0.00130487 
-0.000834375 0.00090935 -0.00099486 0.000698398 -0.000171223 -0.000764515 0.0012661 -0.00179096 0.00152071 -0.0011162 
0.000442167 0.000992866 -0.00180783 0.0036017 -0.00372359 0.00350902 -0.00320853 0.000683538 -0.00183423 -0.00105066 
-0.000872219 -0.000545888 9.69675e-05 0.000412844 0.000548728 0.000412983 0.000130957 -0.000135428 -0.000266876 -0.000217791 
-4.1436e-05 0.000129293 0.000158703 2.46133e-05 -0.000151621 -0.000272549 -0.000430993 -0.000705539 -0.000991641 -0.0011627 
-0.00467784 -0.00783632 0.00546786 0.00618622 0.00943402 0.00290759 0.00139855 0.0101778 -0.00264129 -0.00250047 
0.00047554 -0.00106881 -0.00376686 -0.00402319 0.000382068 -0.00181573 -0.00321038 -0.00444075 -0.000768827 -0.00844976 
-0.0107168 -0.00485836 -0.00817874 -0.00909134 0.00651198 0.00285262 0.00341837 0.0139063 0.000916873 -0.00233713 
0.00484223 -0.0120098 -0.000936595 0.00324994 -0.00641018 0.0106845 -0.00168386 -0.00321367 0.00488553 -0.0108856 
0.00908565 0.000154187 -0.0038869 0.00322986 -0.00620898 0.01065 -0.00982333 0.00352634 0.00308725 -0.00592116 
0.0048695 -0.00288628 0.00294892 -0.00533873 0.0077377 -0.0078666 0.0054806 -0.00225339 -0.000137225 0.000895734 
-0.000662061 9.17539e-05 -0.00012442 0.000652952 -0.00183076 0.00318882 -0.0046922 0.00591457 -0.00662328 0.00655265 
-0.00660979 0.00612531 -0.00668004 0.00562541 -0.00495886 0.00316965 -0.00101715 0.00110513 0.00128384 0.000813032 
0.00109679 0.000405464 2.92669e-05 -0.000353437 -0.000511518 -0.000418388 -0.000182042 8.33249e-05 0.000249689 0.000243368 
8.13237e-05 -0.000111798 -0.000172727 -5.8982e-05 5.92276e-05 -4.9261e-05 -0.000399724 -0.000685048 -0.000435185 -0.000622072 
-0.00268215 0.00946277 0.0104015 0.000789725 -0.00393401 -0.00865973 0.000679321 -0.00715312 -0.0134839 -0.00473722 
-0.0026472 -0.00443309 -0.00716748 0.00118116 0.000424001 -0.00128703 0.000634293 0.00488593 0.00656561 0.00247287 
0.00870618 0.00898456 -0.00105565 -0.000522453 -0.000454723 -0.0153146 -0.00684001 -0.00300059 -0.0103565 0.0063606 
0.00640907 -0.00156011 0.0127365 -0.00438544 -0.0055307 0.00387694 -0.0109445 0.0079222 0.00190745 -0.00354242 
0.00763337 -0.0123634 0.00711464 0.000636965 -0.00231622 0.00291358 -0.0070139 0.0107703 -0.0102008 0.00616126 
-0.00138139 -0.00193774 0.00266564 -0.0015153 0.000659075 -0.00153969 0.00357659 -0.00495209 0.00464886 -0.00278803 
0.000690441 0.00110457 -0.00183869 0.00236867 -0.00233249 0.00283225 -0.00256116 0.00199577 -0.000117308 -0.000904064 
0.00133934 0.000367265 -0.00119009 0.00224769 -0.00121222 0.000337816 5.97637e-06 -0.00120903 -0.000502851 -0.00112845 
-0.000796786 -0.000438044 -0.000101383 0.000288649 0.000437712 0.0004107 0.000219386 -3.4726e-05 -0.000228415 -0.000259512 
-0.000109297 0.000103873 0.000188772 6.71316e-05 -0.000119387 -0.00019601 -0.000248873 -0.000486133 -0.000429931 0.00114049 
0.00643272 0.00983909 -0.00539894 -0.0115722 -0.0126909 0.000857544 0.00669979 -0.0080023 0.00401235 0.0106006 
0.00947433 0.00383076 0.00618557 0.0118164 0.00249104 0.00174028 0.00253763 0.00153952 -0.00363156 -0.00462375 
0.00195177 -0.00144867 -0.000109141 0.0119275 0.00965438 0.00588999 0.0157284 0.0019005 -0.0044667 0.00354138 
-0.0132955 -0.00700056 0.00279165 -0.00822224 0.0118972 0.00504856 -0.00517928 0.00714096 -0.01235 0.00334527 
0.00280659 -0.00416646 0.0104049 -0.0122719 0.0056058 -0.000532978 6.91341e-05 0.00185985 -0.00633804 0.00918448 
-0.00911973 0.00768516 -0.00543763 0.00259415 -0.00055328 0.000401079 -0.00140887 0.0018859 -0.00120788 -0.000159808 
0.000911347 -0.00101943 0.000271113 -0.00018597 0.000161075 -0.00224031 0.00497072 -0.00918488 0.010156 -0.00821718 
0.00199938 0.00307045 -0.00648638 0.00565799 -0.00397791 0.00186499 -0.000397402 0.000731969 0.000554597 0.000894057 