# vtk DataFile Version 2.0
Titre
ASCII
DATASET STRUCTURED_POINTS
DIMENSIONS 100 100 1
ORIGIN 0.0 0.0 0.0
SPACING 0.1 0.1 0.0
POINT_DATA 10000 
SCALARS rho float
LOOKUP_TABLE default
-0.00229706 0.000889006 0.00060431 0.00262759 0.00569555 8.40204e-06 -0.0040004 0.000376185 0.00257131 -0.000951016 
-0.00461702 -0.000467294 0.00407511 0.0028805 -0.0027368 -0.00321371 0.000664239 0.00385535 0.00169231 -0.00182881 
-0.00349652 -0.0016803 0.00135288 0.00340916 0.00208646 -0.00107324 -0.00306158 -0.00228296 -0.000236992 0.00162817 
0.00223582 0.00123259 -0.000452087 -0.00146809 -0.00144103 -0.000637911 0.000487131 0.00122437 0.00126922 0.00088446 
0.000243428 -0.000315389 -0.000567567 -0.000606622 -0.000453501 -0.00025193 -0.000108192 -2.07512e-05 -4.57677e-06 -2.91289e-05 
-4.30117e-05 -5.74401e-05 -3.14123e-05 1.8531e-06 5.0101e-05 0.00011138 0.000133403 0.000192698 0.000182972 0.000199411 
0.000192025 0.000158163 0.000164362 9.68981e-05 0.000100878 1.95281e-05 2.55188e-05 -3.99657e-05 -4.61548e-05 -5.15902e-05 
-7.52525e-05 -1.13408e-05 -3.3161e-05 4.22435e-05 3.96301e-05 7.19359e-05 6.59997e-05 4.16427e-05 9.05158e-06 -6.68445e-05 
-0.000137077 -0.000224762 -0.00025574 -0.00022866 -7.03664e-05 0.000182415 0.000539655 0.000781765 0.000819083 0.000431767 
-0.000154627 -0.000616471 -0.000693671 -0.000685477 -0.000350314 0.000714548 -0.000408742 -0.000785148 -0.00113215 -0.00717243 
-0.00202384 0.00192858 0.000579938 0.00128799 2.71251e-05 -0.00455438 -0.00166318 -0.00169252 -0.000450472 0.000158424 
0.00315376 0.0019467 -0.000551543 -0.00300054 -0.000108449 0.00199548 0.00130956 -0.00143995 -0.00134183 0.000223159 
0.000817822 0.000380547 0.00065886 0.000234126 -0.0010906 -0.00142836 -9.50473e-05 0.000626393 0.000646901 0.000662807 
0.00041539 -0.000251536 -0.000318841 -0.000133148 -0.000128921 3.80191e-06 9.98568e-05 -5.20855e-05 -9.38344e-05 -8.79378e-05 
-0.000143679 -8.21688e-05 1.94587e-05 -6.06678e-07 9.68321e-05 9.47184e-05 5.66909e-05 0.000124465 3.77139e-05 6.95249e-05 
5.79427e-05 -8.99633e-06 4.54158e-05 -4.45576e-05 -2.30526e-05 -4.38724e-05 -8.96183e-05 -5.05893e-05 -0.000109044 -5.45607e-05 
-9.29414e-05 -3.49128e-05 -3.74402e-05 -7.09132e-06 4.7965e-05 1.29877e-05 0.00010296 1.74885e-05 7.77227e-05 -1.85412e-05 
-1.07007e-05 -8.43102e-05 -8.7183e-05 -0.000110955 -8.04274e-05 -4.64168e-05 1.73694e-05 7.04204e-05 0.00013322 0.000154809 
0.000170983 0.000109378 1.7806e-05 -0.000177269 -0.000366808 -0.00057347 -0.000562527 -0.000310617 0.000300029 0.000908636 
0.00101039 0.000603809 0.000126553 -0.000241505 -0.00162643 -0.000285373 0.00216595 -0.000313283 0.00656474 -0.00020719 
-0.000397884 0.00387353 -0.000325603 0.00349657 -0.000512112 0.00153801 0.000941566 0.000486093 -0.000377723 0.000409894 
-0.00117382 -0.00147507 -0.000799666 0.00155043 0.00215747 -0.000663634 -0.00192622 -0.000480915 0.00194776 0.000764958 
-0.000756968 -0.000454694 0.000509953 -0.000474706 -0.000591502 0.000567157 0.000850554 -0.000210697 -0.000232377 -7.29225e-05 
-0.000481481 -0.000409417 0.000126614 8.96043e-05 0.00012287 0.000367968 0.000246031 0.000140535 0.000245394 7.08666e-05 
1.09776e-06 5.56523e-05 -9.19668e-05 -7.43849e-05 -8.2044e-05 -0.000165108 -0.000107392 -0.000122969 -0.000131908 -5.33969e-05 
-8.92569e-05 -1.47598e-05 2.73413e-06 6.55301e-06 9.27883e-05 2.82993e-05 0.000129054 6.82289e-05 8.00634e-05 0.000106929 
-4.39025e-06 8.04466e-05 -6.17889e-05 -2.49804e-06 -8.03734e-05 -6.99124e-05 -5.57201e-05 -7.67757e-05 8.88375e-06 -1.91304e-05 
6.78518e-05 2.88702e-05 8.2696e-05 2.36748e-06 3.93134e-05 -6.69769e-05 -1.47971e-05 -0.000108547 -3.78858e-05 -0.000110711 
-4.4028e-05 -7.83211e-05 3.01987e-05 9.92455e-05 0.000303177 0.000402133 0.000393445 9.5891e-05 -0.000306697 -0.000324414 
-0.000239077 -0.000268429 -0.000302676 0.000978389 -0.000305865 -0.00269287 -0.000109039 -0.00514626 -0.000637825 0.00205853 
0.00100786 0.000509365 0.000782465 0.000294199 -0.00124386 -0.00219728 -0.00295394 -0.00356147 -0.00019292 0.00147832 
0.00232399 0.00230192 0.000332317 -0.000452322 -0.00202097 -0.000755731 0.00114536 0.00186132 -0.000200623 -0.00148132 
-0.000116187 0.00115297 -4.3609e-06 -0.000645129 0.00038323 0.000382662 -0.000914215 -0.000597284 0.000400066 0.00018208 
8.05001e-05 0.00063901 0.000332091 -0.000120845 1.64648e-05 -0.000153071 -0.000426628 -0.000191532 -0.000215725 -0.000254004 
-3.22418e-05 2.50987e-05 5.08117e-06 0.000189909 0.0001282 0.000126673 0.000250156 8.5632e-05 0.000169512 0.000120755 
-4.73381e-06 9.54704e-05 -9.13777e-05 -4.20683e-05 -8.03736e-05 -0.000175417 -6.05963e-05 -0.000189583 -5.37088e-05 -9.81689e-05 
-2.55805e-05 4.16793e-05 1.36796e-05 0.000157148 4.528e-05 0.000165103 5.2189e-05 8.11906e-05 -1.20298e-05 -6.21728e-06 
-7.38789e-05 -5.22731e-05 -6.14023e-05 -2.71212e-05 -1.04962e-06 1.69905e-05 4.76633e-05 3.06323e-05 6.51405e-05 4.80857e-05 
7.74882e-05 2.9761e-05 -2.77393e-05 -0.000191935 -0.000328279 -0.000307384 -7.78498e-05 0.000348045 0.000279836 0.000244604 
0.000302069 8.70089e-05 -0.00139014 -2.79279e-05 0.00227156 -0.000103595 0.0049544 0.000284911 -0.000880757 -0.000160619 
-0.00163639 0.00276147 -0.000554284 0.0020612 -0.00102569 0.00080137 -4.45661e-05 0.00160858 0.00331172 0.00025871 
-0.00105873 -0.00401657 -0.00231507 0.000323666 0.00234012 0.00197889 -0.000285151 -0.00167743 -0.000813014 0.00116333 
0.00127421 -0.000475696 -0.00100894 0.000277722 0.000219958 -0.000780876 -0.000157516 0.00111479 0.000333598 -0.00038176 
-1.36647e-05 -0.000182109 -0.000712371 -0.000126513 0.000123005 -6.54257e-06 0.00031262 0.000459314 0.000181761 0.000253276 
0.000231959 -7.3852e-05 -1.39066e-05 -0.000138588 -0.000283691 -0.000155397 -0.000243751 -0.000231477 -9.35566e-05 -0.000176122 
-1.7235e-05 1.68274e-05 5.28524e-06 0.000182682 6.05316e-05 0.000198393 0.000145344 8.78704e-05 0.000168926 -3.76251e-05 
6.55671e-05 -0.000101311 -8.2634e-05 -0.000110923 -0.000136583 -7.63085e-05 -9.30452e-05 3.3951e-05 -2.93588e-05 0.000119208 
-4.80678e-06 0.000113626 -5.55136e-05 4.63912e-05 -9.61958e-05 4.9744e-06 -6.8022e-05 2.78335e-05 -5.50451e-05 -1.08687e-05 
-0.000123606 -7.53186e-05 -8.83135e-05 9.39688e-05 4.91774e-05 9.68434e-05 -9.64838e-05 0.000316406 0.000333157 -0.000118115 
-0.000241907 0.000718105 -0.00113877 -0.0029734 -0.000199591 -0.00464282 0.000200615 0.00159017 -3.62824e-05 0.00101984 
0.00358805 0.00242646 0.00107587 0.00151634 -0.00209819 -0.000232817 -0.00368318 9.0644e-05 -0.00161748 -0.000339894 
0.000615446 0.00209554 0.00399125 0.00208442 -0.00122609 -0.00325269 -0.00150566 0.0016953 0.00230808 1.65646e-05 
-0.0016656 -0.000722969 0.000849721 0.000270235 -0.000729094 0.000205179 0.000989125 -0.000266417 -0.00109112 -7.87655e-06 
0.000269967 -9.55383e-05 0.000469272 0.000664244 -1.13913e-05 -8.50785e-05 -1.23133e-05 -0.000511479 -0.000392927 -0.00022036 
-0.000282841 -9.95503e-05 0.000102957 8.88701e-05 0.000232676 0.000352942 0.000195367 0.000289194 0.000202534 4.38493e-05 
0.000125316 -0.000104331 -8.38601e-05 -0.000118619 -0.000240896 -9.67885e-05 -0.000220387 -7.01218e-05 -7.07889e-05 -1.03186e-05 
9.59369e-05 5.57198e-05 0.000182414 6.68212e-05 0.000157373 3.69531e-06 3.73007e-05 -8.02187e-05 -7.5402e-05 -8.51444e-05 
-0.000113814 3.92367e-06 -6.90575e-05 6.5865e-05 -4.10759e-05 3.966e-05 -7.98821e-05 2.89158e-05 1.55636e-06 0.000162913 
0.000170523 0.000227629 4.01298e-05 3.1567e-05 -0.000159669 -0.000155855 -0.000639471 -0.000558589 0.000399478 0.000455207 
-0.000512325 0.00113689 0.00186002 -0.00110492 0.00332937 -0.000371066 -0.00116825 0.00154116 0.000183485 0.000751572 
-0.000726171 -0.00182655 -0.000462146 -0.00237969 -0.000964019 -0.00174467 2.96541e-06 0.00236726 0.00122271 0.00146354 
-0.00127733 -0.0024611 -0.00331297 -0.00316667 -0.00081754 0.00254994 0.00344182 0.000971451 -0.00260232 -0.00197925 
0.000798644 0.00175617 -0.000295433 -0.00108735 0.000451154 0.000850305 -0.000790698 -0.000962675 0.000763926 0.000819115 
-0.00020863 -3.3347e-05 0.000109093 -0.000782166 -0.000475692 0.00011472 -2.4265e-05 0.0001964 0.000566673 0.000354114 
0.000240673 0.000288892 -7.01999e-05 -0.000141104 -0.000144296 -0.000368799 -0.000298472 -0.000250308 -0.000280272 -6.50696e-05 
-3.73685e-05 3.46975e-05 0.000216693 0.000126956 0.00025801 0.000201601 0.000125109 0.000153417 -3.84505e-05 -2.38412e-06 
-0.000154163 -0.000104293 -0.000174024 -0.0001113 -3.5059e-05 -5.38449e-05 0.000152313 3.37391e-05 0.000205187 5.94024e-05 
0.000122795 -1.9382e-05 3.08804e-05 -6.93695e-05 2.18959e-05 -1.08245e-05 4.84244e-05 -4.98871e-05 -6.38602e-05 -0.000186526 
-0.000175985 -0.000111799 -8.19292e-05 5.38233e-05 0.000228581 0.000730174 0.00078372 -0.000493779 -0.000243445 0.000603191 
-0.00151237 -0.00168001 0.00050719 -0.00388586 -0.000884536 0.000454621 -0.00186158 0.000385701 0.00189248 -0.000550249 
0.000625809 0.00467569 0.000797498 0.00310317 -0.000117455 0.000330153 0.000511483 0.000410975 -0.000701897 -0.000680362 
-0.000399062 0.00212687 0.00430972 0.0039269 0.00230834 -0.00123525 -0.00335561 -0.00274425 0.000469018 0.00301681 
0.00107364 -0.00166462 -0.00139699 0.00115036 0.000815432 -0.00122834 -0.000635757 0.00132146 0.000607037 -0.00110686 
-0.000395261 0.000319478 -0.000304121 0.000141574 0.000921544 0.000271168 -0.000148187 0.00012555 -0.000450707 -0.000547375 
-0.0002383 -0.000366456 -0.000117189 0.000159864 0.00017703 0.000288605 0.000352477 0.000279907 0.000237023 0.000154104 
-2.03727e-05 -6.85036e-05 -0.000194455 -0.000234207 -0.000226543 -0.000262058 -0.000106703 -0.00015184 5.63411e-05 6.96177e-05 
9.22334e-05 0.000238414 4.82168e-05 0.000169295 -3.03806e-05 -1.84289e-05 -0.000121405 -0.000126025 -9.57821e-05 -9.8017e-05 
5.1206e-05 -6.05671e-06 0.000146882 9.31823e-06 8.78615e-05 -8.54129e-05 5.835e-05 -5.39472e-05 0.000105544 8.03618e-05 
0.000121546 0.000179461 0.00012228 -0.00015855 -0.00068893 -0.000882719 0.000620848 8.49236e-05 -0.000740582 0.00203992 
0.00107587 -0.000579198 0.00295823 0.000238462 -0.0013321 0.00136803 -0.000123909 -0.00195105 0.000605445 0.00277947 
0.00351174 -0.00130856 -0.000879501 -0.00200562 -0.00395742 -0.0014086 -0.00135684 0.000598046 -0.000418948 0.000378177 
-0.0012471 -0.00115093 -0.00347009 -0.00499174 -0.00368258 -0.000731944 0.00350214 0.00388592 0.00153185 -0.00214138 
-0.0027918 0.000154606 0.00210741 0.000396641 -0.00178728 -0.000127269 0.00174399 9.34024e-05 -0.00163157 1.72827e-05 
0.00115112 -4.1039e-05 -0.000192391 0.000515737 -0.000500362 -0.000923438 2.01243e-05 -4.1182e-05 -1.61068e-05 0.000619317 
0.000456284 0.000188598 0.000376555 -3.1246e-05 -0.000282111 -0.000172686 -0.000439904 -0.000319996 -0.000163141 -0.00024466 
5.67463e-05 0.000118033 0.000132697 0.00035113 0.000180837 0.000253299 0.000180843 -1.25667e-05 7.00903e-05 -0.000193226 
-5.74163e-05 -0.000194403 -8.80033e-05 -2.44262e-05 -1.97969e-05 0.000154262 4.95361e-05 0.000168617 -1.1743e-05 3.19495e-05 
-0.000161119 -8.96867e-05 -0.000213284 -5.91006e-05 -6.629e-05 3.97414e-05 4.46007e-06 0.000120992 -6.24909e-05 1.9208e-05 
-0.000319286 -0.000243174 -1.5761e-05 0.00053987 0.000795358 -0.000780124 0.000104347 0.00116653 -0.00248232 -0.000280948 
0.00029703 -0.00287393 -0.0007459 0.000638375 -0.0021211 -0.000957474 0.00190312 0.000630739 -0.00132186 -0.000371251 
-0.00234944 -0.0018393 0.00029311 -0.00130216 0.000691872 0.00108426 0.00204001 0.00145165 0.000275596 0.000410885 
-0.000102405 0.00283877 0.00288967 0.0049879 0.00461149 0.00249657 -0.00140903 -0.00498635 -0.00361441 0.000236502 
0.00340702 0.00181832 -0.0015888 -0.00203653 0.000914523 0.00189971 -0.000797503 -0.00186941 0.00068619 0.00146696 
-0.000594587 -0.000920899 0.000405883 -0.000234346 -0.000407067 0.000836569 0.000717982 -0.000171048 0.000203666 -0.000137033 
-0.000784841 -0.00022706 -0.000265187 -0.000285047 0.000258806 0.000231063 0.000313942 0.000489376 0.000207165 0.000153399 
9.39081e-05 -0.000212106 -0.000137961 -0.00028691 -0.000326347 -9.51495e-05 -0.000260189 5.15524e-05 5.77206e-05 5.2536e-05 
0.000240297 2.22231e-05 0.000163779 -0.000107844 1.91243e-05 -0.000210459 -5.64804e-05 -0.000100746 2.34255e-06 0.000153879 
9.18547e-05 0.00031828 7.27529e-05 0.000212087 -0.000113079 7.28043e-05 -0.000341116 3.14671e-06 -0.00018435 0.000364076 
0.000365079 0.000134081 -0.000257012 -0.000605768 0.00103667 -0.000271294 -0.00168375 0.00296458 -0.000565731 -1.56204e-05 
0.00270967 0.00047446 -0.00112459 0.00128638 0.000705437 -0.00210017 -0.00115329 0.00122273 0.00137652 -0.000118836 
0.00142019 0.0048795 0.00180693 0.00197155 0.000378174 0.00039307 0.00054647 -0.000891171 -0.000349483 -0.00127089 
-0.000898768 -0.00100765 -0.0038183 -0.00433276 -0.00566985 -0.00329155 -8.04212e-05 0.00387283 0.00555957 0.00228453 
-0.00223053 -0.00392629 -0.000286018 0.00270435 0.00132193 -0.00216507 -0.00140051 0.00166482 0.00145627 -0.00136762 
-0.000872033 0.000993736 0.000336635 -0.000374476 0.000629813 0.0001241 -0.00114691 -0.000273644 5.80074e-05 -0.000254122 
0.000424351 0.000671195 0.000188671 0.000255303 0.000131136 -0.000385534 -0.000262481 -0.00035911 -0.000503152 -0.000103464 
-8.80402e-05 1.32282e-05 0.000337131 0.000175303 0.000296738 0.000256051 5.31772e-05 7.97085e-05 -0.000170631 -3.19475e-05 
-0.000257903 -5.84344e-05 -3.19753e-05 -3.56658e-05 0.000233002 -1.60279e-05 0.000274166 -9.46762e-05 6.19142e-05 -0.000211289 
-0.000153632 -0.000257025 -0.00013683 -2.50544e-05 3.12909e-05 0.000317765 0.000261861 0.000172607 -0.000133385 -0.000562092 
3.58053e-05 -0.00011182 0.000455804 -0.00136791 0.00038702 0.0022347 -0.00342399 0.00158175 -6.84671e-05 -0.00259459 
-0.000258204 0.00114374 -0.00138239 -0.0015848 0.000918307 0.000852561 -0.000848656 -0.000502828 0.000426601 0.00177967 
0.00264855 -0.00193897 -0.00295885 -0.00379777 -0.00449141 -0.00153048 -0.00184573 -0.000857846 -0.000417831 -0.000720659 
0.00114196 0.0016092 0.00239747 0.00459543 0.00488632 0.00509767 0.00111543 -0.00288113 -0.00595172 -0.00495263 
-9.36905e-05 0.00394914 0.00330526 -0.00147398 -0.00319946 2.18776e-05 0.00279853 0.000485085 -0.00227201 -0.000448315 
0.00154749 0.000105823 -0.00109649 0.00040107 -4.41937e-05 -0.000887453 0.000418354 0.00106885 1.45483e-05 7.76567e-05 
0.000218964 -0.000727229 -0.000440386 -0.000173085 -0.00033696 0.000208366 0.000345431 0.000281747 0.000472868 0.000303648 
0.000103954 3.38686e-05 -0.000248475 -0.000238938 -0.000222602 -0.000334267 -2.16115e-05 -5.44654e-05 3.96709e-05 0.000242253 
2.39819e-05 0.000260592 -0.000108824 6.88743e-05 -0.00017271 -0.000100766 -9.64965e-05 -4.80601e-05 0.000112369 7.07958e-05 
0.000309218 8.86455e-05 0.000161367 -0.000151726 -0.000172876 -0.00056297 -6.61677e-05 -0.000224768 0.00069571 -0.000385797 
0.000330022 -0.000222432 0.00157877 -0.000260854 -0.00280858 0.00402572 -0.00268137 6.737e-05 0.00255278 8.70555e-05 
-0.0012858 0.00118169 0.00149982 -0.000830513 -0.00142094 0.000203307 0.000186916 -0.000112915 0.00022864 -0.000119945 
-0.00194233 -0.00181958 0.00114689 0.000683249 0.0038717 0.00485961 0.00380137 0.0037504 0.00193627 0.00125996 
0.00119626 -0.000583057 -0.00208589 -0.00333669 -0.00498292 -0.00411385 -0.00295856 0.00200229 0.00568576 0.00692577 
0.00304304 -0.00251947 -0.00490407 -0.00161782 0.0030345 0.00279746 -0.00159625 -0.00262187 0.000681536 0.0022171 
-0.000665379 -0.00128748 0.000764108 0.000602965 -0.000733814 0.000504939 0.000954919 -0.00102986 -0.000702906 0.000102359 
-0.000391753 0.000198635 0.000705302 0.000255578 0.000302577 0.000175872 -0.000355384 -0.000299214 -0.000352747 -0.00042197 
-0.000168173 -4.54747e-05 8.86983e-05 0.000290307 0.000210365 0.000276552 0.000151286 -3.16849e-05 5.75888e-05 -0.000214311 
-0.00011115 -5.69341e-05 -0.000114415 0.000160539 -7.36398e-05 0.000287478 -0.000113991 0.000144353 -0.000225251 -7.97224e-05 
-0.000316566 -6.1551e-05 -9.57641e-06 0.000176157 0.000525301 9.20498e-05 0.00031929 -0.000538438 0.000584064 -0.000112432 
-0.000265971 -0.00141157 -0.000165079 0.00341156 -0.00478953 0.00374357 7.49051e-05 -0.00251621 0.000137888 0.00151214 
-0.00106683 -0.00154614 0.000318999 0.0009945 -0.000583377 -0.000582621 0.000505738 0.000158735 0.000240498 0.000372272 
0.000578729 0.00417329 0.00207361 0.000401494 3.77925e-05 -0.00276959 -0.00379147 -0.00455805 -0.00483621 -0.003627 
-0.00204092 -0.00139545 0.000316813 0.00215922 0.003476 0.00445358 0.00213634 -0.000493869 -0.00548564 -0.00765278 
-0.00616956 -0.0001726 0.00493343 0.00456134 -0.000587339 -0.00405777 -0.00139565 0.00270708 0.00180344 -0.00184133 
-0.00131097 0.00136126 0.000667094 -0.00132521 0.000174944 0.000661235 -0.00105303 -0.000447342 0.00115983 0.000401948 
-3.06268e-05 0.000525804 -0.000541793 -0.000657579 -3.7031e-05 -0.00047106 1.4814e-05 0.000481065 0.000158171 0.000461771 
0.000322148 -9.05726e-05 8.23803e-05 -0.000194395 -0.000386404 -0.00011004 -0.000233848 -6.03743e-05 3.82615e-05 6.51083e-05 
0.000179224 -2.30288e-05 9.84342e-05 -8.09369e-05 -5.57131e-05 -9.45627e-05 -4.06136e-05 0.000123236 4.83796e-05 0.000368633 
6.98864e-05 0.000145791 -0.000133228 -0.000309618 -7.9617e-05 -0.000180466 0.000238624 -0.000617107 -0.000426665 0.000867813 
0.000954522 0.000606736 -0.00378316 0.00549177 -0.00440186 -0.000412536 0.00265706 -0.000423424 -0.00174596 0.000971104 
0.00157254 -0.000157593 -0.00100969 0.000267677 0.000442447 -0.000998247 -0.000580859 0.000707238 0.000577915 0.00107968 
0.0024529 0.000204164 -0.00362248 -0.00336827 -0.00280704 -0.00105934 0.00131451 0.00276033 0.00390561 0.00455656 
0.00450215 0.00269391 0.00154892 -0.000275161 -0.00185129 -0.00253982 -0.00252521 0.0010028 0.00455449 0.00845079 
0.00801404 0.0035664 -0.00315636 -0.00633255 -0.00288499 0.002742 0.0040424 -0.000484243 -0.00304686 -0.000412909 
0.00231837 8.64515e-05 -0.00160787 0.000368581 0.00105939 -0.000701817 -0.000243781 0.00133661 -0.000244543 -0.00102568 
-2.82879e-05 -0.000432527 -0.000265372 0.000744906 0.000365183 0.000179177 0.000372464 -0.000191586 -0.000353242 -0.000287455 
-0.000332305 -0.000120664 4.65926e-05 0.000112315 0.000348012 0.000168863 0.000198053 0.000187309 -0.000140025 4.04138e-05 
-0.000184664 3.11638e-07 3.83929e-06 -9.50894e-05 0.000290728 -0.000177451 0.000192238 -0.000305032 8.70877e-06 -0.000405661 
0.000135601 -0.000242208 0.000371393 -0.000312706 0.000166107 -0.000196179 0.00074411 0.000832798 -0.00125817 -0.000561765 
-0.000624811 0.00363801 -0.00580655 0.00445909 0.000927968 -0.00296623 0.000699278 0.00213027 -0.000864333 -0.00156754 
4.86887e-05 0.00102741 -0.000250086 -0.000900985 0.000451924 0.000739803 -0.000619419 -0.000465789 0.000376826 0.000552561 
-0.000114667 -0.00273459 -0.000950884 0.00137269 0.00364539 0.00464887 0.00335079 0.00123802 -0.00113633 -0.0024759 
-0.00323626 -0.00392838 -0.00265127 -0.00154889 0.000167677 0.00116627 0.00061496 -0.000645824 -0.00493314 -0.00814121 
-0.00993979 -0.00618081 0.000315922 0.00626518 0.00601277 0.000392106 -0.00435581 -0.00270863 0.00204271 0.00257319 
-0.00117349 -0.00182571 0.000994229 0.00119925 -0.00118589 -0.000347203 0.00102494 -0.000652002 -0.000947014 0.000715935 
0.00060253 7.98108e-05 0.000676407 -5.81619e-05 -0.000739252 -0.000168648 -0.000299836 -0.000239758 0.000341012 0.000211261 
0.000277346 0.000298724 -2.9767e-05 -0.000201897 -0.000138503 -0.000377972 -0.000120032 -0.000206502 -1.30012e-05 0.000181593 
-0.000103468 0.000220301 -2.05972e-05 -1.58153e-05 -8.01102e-06 -7.82937e-05 0.000229661 -0.000157273 0.000444958 -0.000357869 
0.000450881 -0.000440393 0.000689839 -9.53533e-05 0.000218153 -0.000791806 -0.00109128 0.00156049 0.000228801 0.000207992 
-0.0031322 0.00575795 -0.00419765 -0.00127746 0.00322036 -0.000599857 -0.00277037 0.000878758 0.0015157 0.000151688 
-0.00115326 0.000106241 0.00104049 -0.00010874 -0.00113908 -5.46344e-05 0.000538883 8.95838e-05 0.000100721 6.96046e-05 
-0.000578708 0.00114237 0.00236857 0.00153193 0.000432537 -0.00260351 -0.00476181 -0.00521692 -0.00429198 -0.00171262 
0.000152431 0.00108689 0.00219353 0.00153895 0.00126056 0.000112131 0.000178671 0.00197164 0.00452035 0.00864303 
0.0101984 0.00897179 0.00226078 -0.00463044 -0.00808937 -0.00403126 0.00233255 0.00473336 0.000636897 -0.00293663 
-0.00116352 0.00206114 0.000836953 -0.00174111 -0.000112985 0.00126597 -0.000461429 -0.000798155 0.00128221 0.00041567 
-0.00104025 -5.47308e-05 -0.000397611 -0.000772752 0.000540084 0.000369773 0.000168166 0.000484735 -0.000154185 -0.000205185 
-0.00010565 -0.00041709 -5.78927e-05 0.000137695 0.000178786 0.000243307 0.000371159 3.53303e-05 0.000147703 -0.000113373 
9.63551e-06 -0.000175193 -0.000110602 3.49714e-05 -0.000148707 -2.04913e-05 -5.76446e-05 -1.76076e-05 0.000143134 -4.2146e-05 
4.08404e-05 -0.000409638 -0.000469633 0.000291876 0.000308265 0.00159913 -0.00222484 0.000323026 0.000293355 0.00265343 
-0.0055753 0.00412176 0.00119772 -0.00317859 -2.24725e-05 0.00360643 -0.000887268 -0.00144463 -0.000319375 0.00126822 
0.000196282 -0.00113007 -0.000340119 0.000879585 0.000298451 -0.000615256 -0.000244521 0.000229732 0.000396055 0.000577959 
0.00120351 0.00162628 -0.00112575 -0.00254912 -0.00259165 -0.00181196 0.00114059 0.00389432 0.00567086 0.0065623 
0.00495642 0.00306208 0.00179815 0.000256622 0.000436218 -0.00060677 -0.000421385 -0.00216181 -0.0046828 -0.00816135 
-0.0107462 -0.00986568 -0.00507762 0.0028825 0.00835114 0.00768348 0.00106223 -0.00458304 -0.00355946 0.0013094 
0.00291544 -0.000641852 -0.00199335 0.00040537 0.00154848 -0.000790225 -0.000887105 0.00120297 -4.63578e-08 -0.00137725 
0.000231884 0.000738562 1.808e-05 0.000639763 0.000517117 -0.000534186 -0.00029915 -0.000194027 -0.000314518 0.000127718 
0.000180109 0.00023367 0.000166052 3.28245e-06 -0.000110099 -0.000297078 -0.00028507 -0.000230817 4.80094e-06 -0.000199794 
0.000284215 2.3234e-05 0.000290523 1.92803e-05 0.000278965 4.12528e-07 -7.72066e-05 -8.48083e-05 -0.000294393 0.000343436 
-7.39033e-05 0.00105948 -0.00107201 0.000320117 -0.00209664 0.00298637 -0.00077283 -0.000992075 -0.00200219 0.00508368 
-0.00421084 -0.000974573 0.00305702 0.00086774 -0.00415892 0.000675965 0.00162957 0.000371985 -0.00117305 -0.000617231 
0.00116986 0.00062262 -0.000596072 -0.000565199 0.000270543 0.000153147 -0.000313763 -1.54313e-05 0.000287468 0.000543635 
0.000908709 -0.0012441 -0.00265175 -0.000502709 0.00186632 0.00353971 0.00358344 0.000998033 -0.00233894 -0.00487654 
-0.00741226 -0.00728849 -0.00639295 -0.00498339 -0.00306051 -0.00259412 -0.000289176 0.000784235 0.00418749 0.00692788 
0.0101856 0.0101617 0.0064561 -0.00101705 -0.0080733 -0.010122 -0.00512986 0.00225854 0.00532932 0.00154901 
-0.00272866 -0.0016961 0.00175222 0.00135928 -0.00150442 -0.000537089 0.00121419 -4.98154e-05 -0.00111554 0.000596616 
0.00106667 -0.000547898 -0.000319743 -0.000203008 -0.000922094 5.99513e-05 0.000336908 5.96698e-05 0.000481822 0.000119361 
-0.000292052 5.72788e-06 -0.000240501 -9.15438e-05 7.66066e-05 0.00017493 0.000322741 0.000209711 0.000146595 8.6566e-05 
-0.000197635 -0.000231485 -9.89876e-05 -0.00040186 4.1411e-05 -6.38928e-05 0.000229736 0.000180955 -0.000349601 9.19326e-05 
-0.00102231 0.00139073 -0.000267351 0.0018489 -0.00305017 0.00039702 0.00235782 0.000558704 -0.00391924 0.00410306 
0.00110487 -0.00308084 -0.0014913 0.00424548 -0.00016881 -0.00196655 -0.000358749 0.00107553 0.0010519 -0.000985164 
-0.00084145 0.000447065 0.000553398 -0.000119323 -0.000373169 0.000262528 4.75147e-05 -0.000267285 0.000160129 0.00020748 
-0.000228898 -0.00143257 0.000168417 0.00231446 0.00199523 -0.000113789 -0.00307806 -0.00494946 -0.00369394 -0.000347617 
0.00285373 0.0065857 0.00791648 0.00855232 0.00759246 0.00563706 0.00430543 0.00115936 -0.00126406 -0.00538935 
-0.00796215 -0.00928089 -0.00648476 -9.99576e-06 0.00758337 0.0118932 0.00891979 0.00133524 -0.00510612 -0.00420642 
0.000459531 0.00308939 3.3438e-05 -0.00198893 -0.000194657 0.00152341 -0.000297561 -0.00119543 0.000946061 0.000627635 
-0.00105525 -0.000281614 0.000222729 0.000121537 0.000727015 0.000523989 -0.000185284 -1.84545e-05 -0.000393852 -0.000253751 
7.13631e-06 9.21342e-05 7.65575e-05 0.000131365 3.79258e-05 -0.000230134 -0.00015363 -0.000146512 -0.000379074 0.000287259 
-5.34956e-05 0.000385572 3.18245e-05 0.000346881 -0.000265677 0.000101922 -0.000324198 0.000668801 -0.000146468 0.000905304 
-0.00155647 -0.000171238 -0.00112145 0.0025456 0.00052442 -0.00405006 0.0014679 0.00254907 -0.00400147 -0.00131548 
0.00289249 0.00207977 -0.0043296 -0.000150278 0.00209307 0.000727664 -0.00110316 -0.00121303 0.000619663 0.00117093 
-0.000372225 -0.000501464 3.83518e-05 0.000498763 -0.000255824 -0.000424422 0.000293717 0.000147876 6.43705e-05 0.000114833 
-0.000242797 0.000207072 0.00115427 0.000403778 -0.00163048 -0.00251866 -0.00164155 0.00142615 0.00485734 0.00580118 
0.00382567 0.000443292 -0.00385023 -0.00660155 -0.0084356 -0.00863229 -0.00695702 -0.00513475 -0.0015737 0.00162896 
0.00520703 0.0067767 0.00505623 -4.69834e-05 -0.007871 -0.0127939 -0.0126068 -0.0050809 0.00283008 0.00621466 
0.00219153 -0.00213637 -0.00201972 0.000965562 0.00152635 -0.000796093 -0.000808548 0.000882926 0.000346556 -0.000935929 
-0.00020284 0.000902632 5.17116e-05 -9.04326e-05 -5.23075e-05 -0.000893867 -0.000382849 0.000307739 3.06277e-05 0.000382546 
0.0001052 0.000189424 -9.66294e-05 -0.000187975 0.000158725 -2.57242e-05 5.49244e-05 0.000291863 -0.000116889 0.000125983 
-0.000353284 0.000224813 -0.000541242 0.000623927 -0.000555045 0.000653749 -0.00131409 0.000482423 -0.00112018 0.00200065 
0.000317982 0.000614454 -0.00218215 -0.00103229 0.00522374 -0.00318748 -0.00186238 0.00442852 0.00093201 -0.00202465 
-0.00301698 0.00497058 5.22764e-05 -0.00182075 -0.00142998 0.00110343 0.00132992 -0.000198275 -0.00133219 0.000213767 
0.000709779 4.65427e-06 -0.000540763 -1.54756e-05 0.000601871 -0.000182488 -0.00034727 1.67216e-05 0.000288685 0.000312328 
0.000228548 0.000429834 -0.000359428 -0.00151947 -0.00101998 0.00097502 0.00258986 0.00306587 0.000561012 -0.0033054 
-0.00643673 -0.0068435 -0.00450944 -0.000663495 0.00328411 0.00562528 0.00738859 0.00608143 0.00473887 0.0011845 
-0.0014202 -0.00353722 -0.0026889 0.00165727 0.00823952 0.0143448 0.0150016 0.00919899 -9.84369e-05 -0.00627586 
-0.00522109 -0.000229435 0.00272428 0.000647221 -0.00134712 -0.000329747 0.000717535 5.14436e-05 -0.000796706 0.000377538 
0.000584512 -0.00030661 -7.15433e-05 -0.00026819 -0.000422532 0.000720534 0.000691947 -0.000142342 7.2729e-05 -0.000260716 
-0.000450061 -5.15863e-05 -0.000224763 0.000186928 -0.000108857 0.000193482 -9.58798e-05 -5.33792e-06 4.06967e-05 4.59578e-05 
-0.000233268 0.00024577 -0.000508578 0.000484367 -0.000426393 0.00142463 -0.000341106 0.000848671 -0.00198981 -0.00069597 
0.000186439 0.00162345 0.00127344 -0.00611465 0.00463016 0.00157703 -0.0049492 -0.000187537 0.00101987 0.00403365 
-0.00583118 -0.000114635 0.00162956 0.00181449 -0.000557782 -0.00169322 -2.68881e-05 0.00121977 0.0002117 -0.00100459 
-0.000106933 0.000581826 0.000303116 -0.000493898 -0.00016183 0.000289898 9.71579e-05 -0.0001631 -8.1797e-06 0.000345005 
0.000249808 -0.000220238 -0.00115989 -0.000496276 0.00162156 0.00189633 0.000327286 -0.00213457 -0.00414205 -0.00263003 
0.000674618 0.00542136 0.00814512 0.00820229 0.00594097 0.00182355 -0.000533171 -0.00356715 -0.00285439 -0.00279332 
-0.000110818 0.000441887 0.000406945 -0.00362721 -0.00920181 -0.0154059 -0.0168736 -0.0125994 -0.00268649 0.00542841 
0.00757316 0.00328852 -0.00132608 -0.0018803 -7.2075e-05 0.000970239 -0.000250624 -0.000247762 0.000541522 -1.79014e-05 
-0.000312226 -9.51591e-05 -9.29791e-05 8.77774e-05 0.000589464 -4.00936e-06 -0.000463143 -0.000383377 -0.000108039 0.000179638 
0.000571152 3.20153e-05 0.000176097 0.000283761 -0.000482362 0.000188533 -0.000362186 0.000147163 -7.6525e-05 0.000350595 
0.000111582 0.000292172 -0.000158548 -0.000231486 -0.00101242 -0.000357978 0.000174796 0.00119999 0.0017192 -0.0018292 
-0.000378351 -0.00185899 0.00736724 -0.00636555 -0.000702077 0.00475968 -0.000155629 -0.000692253 -0.00479969 0.00630325 
0.000834604 -0.00185603 -0.00152983 -0.000473655 0.00203017 0.00027268 -0.00112575 -0.00066997 0.000992315 0.000479355 
-0.000674327 -0.00040544 0.000164495 0.0003662 -7.36814e-05 -0.000237055 0.000100936 0.000120517 2.31013e-06 0.000174325 
0.000144573 -0.000533933 -0.000707796 0.000976348 0.00149002 -0.000763183 -0.00206179 -0.0020818 0.000741513 0.00418741 
0.00449306 0.00261059 -0.00285038 -0.00712791 -0.0102384 -0.0102937 -0.00774495 -0.00563504 -0.00240816 -0.00191731 
-0.000655183 -0.00107461 0.00100677 0.00392476 0.0100132 0.0152795 0.0181166 0.014106 0.00521702 -0.00468894 
-0.00938152 -0.0066541 -0.00133243 0.00171317 0.00105659 3.12599e-05 -1.69449e-05 -0.000393758 -0.000267907 -7.38657e-05 
0.000179559 -4.32769e-06 -6.16293e-05 0.000348842 -6.92343e-05 -0.00098537 0.000365172 0.000250787 0.000198079 0.000275364 
-0.000630544 -0.000131463 8.6102e-05 -0.000455915 0.000451847 -8.74221e-07 -1.29986e-05 0.000277995 -0.00076723 7.53485e-06 
-0.000489582 0.000212741 0.000578555 0.000759182 0.000902262 -0.00119655 -0.000421386 -0.00259775 0.0034924 -0.000747931 
0.00218528 -0.00826332 0.00788159 -0.000553616 -0.00437325 0.000382667 0.000429388 0.00606359 -0.00673845 -0.00162637 
0.00199105 0.00112227 0.00108014 -0.00169947 -0.00101634 0.00126849 0.000908251 -0.000628906 -0.00108544 0.000564027 
0.000380975 -7.32979e-06 -0.000318253 -0.000268707 0.00029577 -6.43744e-05 -0.000135835 0.000121589 7.27044e-05 0.000161313 
6.6891e-05 -0.000591797 -6.24973e-05 0.00110238 -0.000317699 -0.00162697 -0.000341704 0.0012124 0.00328496 0.00116561 
-0.00265331 -0.00539594 -0.00572471 -0.00104512 0.00383565 0.00958678 0.0121405 0.0125989 0.011187 0.00899118 
0.00691129 0.00460848 0.00184826 -0.00255483 -0.0081856 -0.013999 -0.0169038 -0.0143325 -0.00580272 0.00473698 
0.0110293 0.01021 0.00485839 -0.000143598 -0.00123588 -0.00111623 -0.000598633 5.29585e-05 0.00113681 0.000623628 
-0.0008851 -2.3726e-05 0.00101644 -0.000773463 -0.000497679 0.000930645 0.000393173 -0.000638565 0.000292151 -0.000447704 