# vtk DataFile Version 2.0
Titre
ASCII
DATASET STRUCTURED_POINTS
DIMENSIONS 100 100 1
ORIGIN 0.0 0.0 0.0
SPACING 0.1 0.1 0.0
POINT_DATA 10000 
SCALARS rho float
LOOKUP_TABLE default
-0.0165071 -0.0121563 -0.0127334 -0.00987549 -0.00536331 -0.000963944 0.00276177 0.0039626 0.00310962 0.00101042 
-0.000720718 -0.00126233 -0.000728868 3.76333e-05 0.000361247 0.000195847 -6.11163e-05 -0.000113366 -1.16005e-05 5.17183e-05 
2.10562e-05 -1.88751e-05 -1.2618e-05 7.6247e-06 6.59631e-06 -3.26628e-06 -2.9142e-06 1.64893e-06 1.09743e-06 -8.71889e-07 
-2.84576e-07 4.24107e-07 -8.45224e-09 -1.61522e-07 6.28864e-08 3.35413e-08 -3.75317e-08 6.55022e-09 9.27529e-09 -7.2928e-09 
1.31813e-09 1.443e-09 -1.32318e-09 4.66838e-10 4.78511e-11 -1.60366e-10 1.0468e-10 -3.78213e-11 3.45356e-12 6.07866e-12 
-5.46234e-12 2.9626e-12 -1.20819e-12 3.73117e-13 -7.03658e-14 -9.14761e-15 1.76383e-14 -1.13593e-14 5.58732e-15 -2.38793e-15 
9.31679e-16 -3.40519e-16 1.18425e-16 -3.99189e-17 1.19947e-17 -6.9066e-18 -7.78627e-18 -2.88137e-17 -8.39438e-17 -2.49862e-16 
-6.74525e-16 -1.84396e-15 -4.24567e-15 -9.80189e-15 -1.35481e-14 -7.62317e-15 1.29453e-13 6.63034e-13 3.05783e-12 1.06257e-11 
3.52999e-11 1.05301e-10 2.76417e-10 7.14661e-10 1.29816e-09 2.48473e-09 -1.01626e-09 -1.27227e-08 -8.69511e-08 -2.94601e-07 
-9.43785e-07 -2.81583e-06 -6.83609e-06 -1.98783e-05 -4.70237e-05 -0.00013119 -0.000390961 -0.000897786 -0.00311466 -0.00523974 
0.00580824 0.0153827 0.0153965 0.0190048 0.0156849 0.0107887 0.00340683 -0.00262479 -0.00557973 -0.0047682 
-0.00182625 0.000840709 0.00165859 0.00084876 -0.000235477 -0.000556735 -0.000186162 0.000179104 0.000160187 -3.18823e-05 
-8.49998e-05 -2.22516e-06 4.12664e-05 5.72931e-06 -1.97264e-05 -3.14241e-06 9.49905e-06 8.14894e-07 -4.4575e-06 3.42799e-07 
1.88537e-06 -6.12926e-07 -6.07162e-07 4.50876e-07 7.06326e-08 -2.02302e-07 6.54651e-08 4.11356e-08 -4.47024e-08 1.10374e-08 
8.2449e-09 -8.67578e-09 3.09183e-09 5.08988e-10 -1.25178e-09 7.60552e-10 -2.25744e-10 -2.61441e-11 7.60031e-11 -5.2819e-11 
2.41353e-11 -7.57772e-12 1.0139e-12 6.72673e-13 -7.0442e-13 4.21882e-13 -2.03125e-13 8.5837e-14 -3.31294e-14 1.19634e-14 
-4.11416e-15 1.36704e-15 -4.4442e-16 1.42044e-16 -4.68731e-17 9.22999e-18 -2.13583e-17 -5.45788e-17 -1.85222e-16 -6.0633e-16 
-1.97532e-15 -6.35038e-15 -2.01369e-14 -6.25297e-14 -1.90037e-13 -5.6001e-13 -1.59798e-12 -4.35606e-12 -1.12745e-11 -2.70109e-11 
-5.80257e-11 -1.01365e-10 -9.25692e-11 2.75045e-10 2.16123e-09 8.97897e-09 3.07308e-08 9.00303e-08 2.4288e-07 5.9088e-07 
1.36651e-06 3.08346e-06 7.18216e-06 1.93819e-05 5.56339e-05 0.00017098 0.000489643 0.0012359 0.00282687 0.00442628 
-0.00652676 -0.0112086 -0.0146856 -0.0172192 -0.017156 -0.0133583 -0.00655944 0.00103814 0.00637622 0.00739831 
0.00449068 0.000272027 -0.0023019 -0.00211831 -0.000409023 0.000803868 0.000679425 -4.82905e-05 -0.000350917 -9.99564e-05 
0.000144507 8.14759e-05 -5.99621e-05 -4.83226e-05 2.77227e-05 2.53158e-05 -1.46369e-05 -1.16492e-05 8.43657e-06 4.25153e-06 
-4.76904e-06 -7.61758e-07 2.31707e-06 -4.40998e-07 -7.97429e-07 5.08226e-07 8.10462e-08 -2.32768e-07 9.34092e-08 3.02599e-08 
-5.03177e-08 2.15095e-08 2.11066e-09 -8.14861e-09 5.13143e-09 -1.38108e-09 -3.96512e-10 6.72031e-10 -4.20179e-10 1.65717e-10 
-3.32201e-11 -1.03507e-11 1.52018e-11 -9.95306e-12 4.94582e-12 -2.07155e-12 7.59961e-13 -2.47802e-13 7.18393e-14 -1.82332e-14 
3.8723e-15 -5.97496e-16 2.14169e-17 2.75143e-17 -8.35628e-18 1.07782e-17 2.99475e-17 9.32492e-17 2.94689e-16 9.00199e-16 
2.67973e-15 7.71923e-15 2.13626e-14 5.6105e-14 1.36934e-13 2.97138e-13 5.07781e-13 3.07248e-13 -2.6761e-12 -1.79e-11 
-7.81812e-11 -2.8689e-10 -9.43238e-10 -2.84632e-09 -7.96914e-09 -2.07642e-08 -5.06107e-08 -1.15942e-07 -2.56637e-07 -5.77023e-07 
-1.44454e-06 -4.21541e-06 -1.36637e-05 -4.49067e-05 -0.000139123 -0.000395064 -0.000999921 -0.00221738 -0.0041873 -0.00618893 
0.000798478 0.00953226 0.0118973 0.0188538 0.0206553 0.0197089 0.0129565 0.00320452 -0.00624998 -0.0110638 
-0.00955669 -0.0037037 0.00200258 0.00398881 0.00219043 -0.000519572 -0.00146675 -0.000550853 0.000470602 0.000451234 
-9.75643e-05 -0.000249448 1.00775e-05 0.000132495 2.13298e-06 -7.13532e-05 7.98802e-07 3.77316e-05 -4.56136e-06 -1.84275e-05 
5.87252e-06 7.41809e-06 -4.8459e-06 -1.75319e-06 2.77168e-06 -4.0432e-07 -9.54556e-07 6.326e-07 3.12028e-08 -2.53528e-07 
1.41322e-07 -1.2187e-09 -4.67342e-08 3.26682e-08 -8.75702e-09 -3.3689e-09 5.07922e-09 -2.99252e-09 1.00587e-09 -4.33221e-11 
-2.07564e-10 1.77e-10 -9.74304e-11 4.18073e-11 -1.44297e-11 3.7675e-12 -4.79554e-13 -2.19939e-13 2.24863e-13 -1.27255e-13 
5.8262e-14 -2.35643e-14 8.71963e-15 -3.00211e-15 9.69775e-16 -2.94395e-16 8.64216e-17 -1.16549e-17 5.81915e-17 2.35604e-16 
1.00881e-15 4.08504e-15 1.58233e-14 5.88215e-14 2.10323e-13 7.24204e-13 2.40186e-12 7.66824e-12 2.35334e-11 6.92742e-11 
1.95003e-10 5.22959e-10 1.33044e-09 3.19884e-09 7.26793e-09 1.57877e-08 3.42243e-08 8.11733e-08 2.32374e-07 7.89766e-07 
2.85525e-06 1.003e-05 3.28363e-05 9.85226e-05 0.000268433 0.000658268 0.00142956 0.00267545 0.0040687 0.00425914 
0.00200174 -0.00181374 -0.00519037 -0.0104076 -0.0162356 -0.018885 -0.0168338 -0.00863503 0.00273192 0.0122871 
0.0150007 0.0099145 0.00110634 -0.00511439 -0.00528713 -0.00134056 0.00193914 0.00189021 -1.71509e-05 -0.000955426 
-0.000305757 0.000407255 0.000223279 -0.000196682 -0.000130701 0.00011173 6.95573e-05 -6.86646e-05 -3.06773e-05 4.20306e-05 
7.87435e-06 -2.33702e-05 2.74827e-06 1.02824e-05 -5.0952e-06 -2.49065e-06 3.34212e-06 -6.17093e-07 -1.02189e-06 8.25904e-07 
-1.15518e-07 -2.27065e-07 1.92806e-07 -5.77738e-08 -2.09983e-08 3.37664e-08 -1.95716e-08 5.61407e-09 9.08011e-10 -2.20386e-09 
1.56594e-09 -7.57295e-10 2.67843e-10 -5.80317e-11 -6.13811e-12 1.54409e-11 -1.08442e-11 5.71041e-12 -2.5887e-12 1.06397e-12 
-4.07229e-13 1.47511e-13 -5.10898e-14 1.70224e-14 -5.47623e-15 1.68953e-15 -5.4131e-16 3.49311e-17 -4.1401e-16 -1.22733e-15 
-4.04443e-15 -1.29804e-14 -4.0916e-14 -1.26233e-13 -3.80035e-13 -1.11251e-12 -3.15366e-12 -8.61426e-12 -2.25409e-11 -5.61189e-11 
-1.31969e-10 -2.91642e-10 -6.09763e-10 -1.26437e-09 -2.97077e-09 -9.2316e-09 -3.61872e-08 -1.50242e-07 -5.96269e-07 -2.19077e-06 
-7.40884e-06 -2.30665e-05 -6.61015e-05 -0.000173867 -0.000416946 -0.000900332 -0.00171177 -0.00274679 -0.00337386 -0.00220253 
-0.00321772 -0.0020173 -0.00109903 0.00265927 0.0076425 0.0130403 0.0151659 0.0115967 0.00173998 -0.0105107 
-0.0186705 -0.0175679 -0.00793653 0.00336092 0.00853006 0.00549719 -0.000697743 -0.00354698 -0.00167628 0.00103664 
0.0012336 -0.000183885 -0.000657812 4.20654e-05 0.00036534 -3.93915e-05 -0.000216595 4.65808e-05 0.000123718 -4.78707e-05 
-6.06067e-05 4.10379e-05 2.03911e-05 -2.76746e-05 2.72197e-07 1.30325e-05 -6.10015e-06 -2.7127e-06 4.0645e-06 -1.23023e-06 
-8.57905e-07 1.02522e-06 -3.79527e-07 -9.47674e-08 1.98706e-07 -1.19421e-07 3.06053e-08 1.14452e-08 -1.79974e-08 1.16188e-08 
-4.93944e-09 1.24977e-09 1.04967e-10 -3.56357e-10 2.67742e-10 -1.46418e-10 6.75444e-11 -2.77727e-11 1.04878e-11 -3.71428e-12 
1.25551e-12 -4.11668e-13 1.32846e-13 -4.26532e-14 1.3696e-14 -4.37915e-15 1.41956e-15 -3.42728e-16 4.25758e-16 8.969e-16 
2.89642e-15 8.63369e-15 2.49501e-14 6.9137e-14 1.8215e-13 4.50247e-13 1.02235e-12 2.05477e-12 3.38954e-12 3.76275e-12 
1.09617e-12 7.63225e-12 1.53371e-10 1.19685e-09 6.65953e-09 3.07744e-08 1.25457e-07 4.64471e-07 1.58553e-06 5.02966e-06 
1.48756e-05 4.10135e-05 0.000105081 0.00024854 0.00053662 0.001038 0.0017403 0.0023649 0.00216232 0.000148319 
0.0023311 0.00471013 0.00537477 0.0058657 0.00315266 -0.00124791 -0.00642193 -0.00829357 -0.00399191 0.00659983 
0.0183755 0.0235788 0.0174133 0.00317526 -0.00916193 -0.0111922 -0.00387481 0.003825 0.00471869 0.000488702 
-0.00224774 -0.000977298 0.00091132 0.000580333 -0.000491989 -0.000290808 0.000346055 0.000134026 -0.000249209 -3.84628e-05 
0.000163088 -1.80218e-05 -8.82262e-05 3.91964e-05 3.1855e-05 -3.32073e-05 -1.96701e-07 1.56706e-05 -8.44064e-06 -1.88471e-06 
4.69766e-06 -2.31809e-06 -2.24128e-07 1.02221e-06 -6.80619e-07 1.73344e-07 8.58807e-08 -1.23467e-07 7.58037e-08 -2.80874e-08 
3.20486e-09 4.42406e-09 -4.47629e-09 2.7401e-09 -1.32114e-09 5.37601e-10 -1.88627e-10 5.67133e-11 -1.3943e-11 2.31784e-12 
8.25239e-14 -2.859e-13 1.57723e-13 -6.24785e-14 2.02948e-14 -5.4982e-15 1.17016e-15 -1.40062e-16 -2.18805e-17 9.82793e-17 
3.52894e-16 1.70374e-15 7.09138e-15 2.73008e-14 9.75072e-14 3.22257e-13 9.71271e-13 2.5701e-12 5.33282e-12 4.26139e-12 
-3.66803e-11 -2.97498e-10 -1.54372e-09 -6.71536e-09 -2.62581e-08 -9.48943e-08 -3.21143e-07 -1.02426e-06 -3.08676e-06 -8.79025e-06 
-2.36056e-05 -5.95293e-05 -0.000140031 -0.000304094 -0.000599926 -0.00104712 -0.00153993 -0.00170599 -0.000907636 0.00109874 
0.000107486 -0.00268685 -0.00467942 -0.00773882 -0.00972436 -0.00935946 -0.0062906 -0.00197296 -0.000284555 -0.00465364 
-0.0148093 -0.0246371 -0.0255129 -0.0137343 0.00411795 0.0151254 0.011801 -4.04563e-05 -0.00743981 -0.00464241 
0.00174361 0.00313409 3.38918e-06 -0.00151986 -1.71545e-05 0.000809207 -0.000169819 -0.000504476 0.00024984 0.000299694 
-0.00024724 -0.000131483 0.000194814 1.28461e-05 -0.000116024 4.20157e-05 4.09631e-05 -4.18452e-05 3.36838e-06 1.7287e-05 
-1.23482e-05 8.54967e-07 4.43893e-06 -3.56603e-06 1.03161e-06 4.74025e-07 -7.34116e-07 4.47464e-07 -1.45285e-07 -9.26648e-09 
4.85124e-08 -3.90408e-08 2.12954e-08 -8.99012e-09 2.92442e-09 -6.06495e-10 -5.01068e-11 1.39695e-10 -9.63303e-11 4.96217e-11 
-2.19596e-11 8.76869e-12 -3.23268e-12 1.11345e-12 -3.6047e-13 1.09926e-13 -3.15776e-14 8.45007e-15 -2.31582e-15 -9.60627e-17 
-1.98676e-15 -5.75682e-15 -1.67717e-14 -4.4805e-14 -1.03131e-13 -1.61836e-13 1.40864e-13 2.88932e-12 1.78001e-11 8.53532e-11 
3.61782e-10 1.41493e-09 5.20431e-09 1.81754e-08 6.05675e-08 1.93025e-07 5.8863e-07 1.71624e-06 4.77488e-06 1.26355e-05 
3.16543e-05 7.45751e-05 0.000163671 0.00033002 0.000598359 0.00094056 0.00119227 0.000999992 3.96005e-05 -0.00112749 
-0.00173802 -0.000471183 0.000623788 0.00372723 0.00783349 0.0120298 0.0142043 0.013234 0.0100683 0.0084418 
0.0121519 0.0208212 0.0276086 0.0235158 0.00661641 -0.0127692 -0.0195177 -0.00914467 0.0060821 0.0103708 
0.0025386 -0.0046605 -0.00306064 0.00155627 0.0015699 -0.000832251 -0.000582413 0.000762813 0.000119696 -0.00066658 
0.000116248 0.000465488 -0.000230158 -0.000227994 0.000231767 3.5808e-05 -0.000147331 5.65775e-05 4.40511e-05 -5.41106e-05 
1.37753e-05 1.50789e-05 -1.66278e-05 6.08187e-06 1.89414e-06 -3.80323e-06 2.42552e-06 -7.22146e-07 -1.7672e-07 3.75602e-07 
-2.74688e-07 1.35997e-07 -4.73482e-08 8.09899e-09 3.67619e-09 -4.71998e-09 3.12862e-09 -1.64216e-09 7.53032e-10 -3.14622e-10 
1.2258e-10 -4.51825e-11 1.59004e-11 -5.37093e-12 1.74552e-12 -5.45843e-13 1.63998e-13 -4.71831e-14 1.30419e-14 -3.26126e-15 
9.1183e-16 -1.47707e-15 -1.02279e-14 -5.68655e-14 -2.71283e-13 -1.1871e-12 -4.88954e-12 -1.92059e-11 -7.24607e-11 -2.63665e-10 
-9.27412e-10 -3.15678e-09 -1.04012e-08 -3.31601e-08 -1.02194e-07 -3.03982e-07 -8.70893e-07 -2.39637e-06 -6.30999e-06 -1.58238e-05 
-3.75536e-05 -8.36243e-05 -0.000172636 -0.000324602 -0.000540473 -0.000757889 -0.000801636 -0.000428549 0.000329342 0.000490385 
0.00194436 0.00292554 0.00365077 0.00344665 0.00100286 -0.00369165 -0.00986994 -0.0150587 -0.0170214 -0.01562 
-0.0141022 -0.0166027 -0.0230521 -0.0263584 -0.0176439 0.0027486 0.020741 0.0203834 0.00259785 -0.013112 
-0.0109496 0.00200852 0.00735734 0.0014625 -0.00325327 -0.000843974 0.00143945 -0.000212693 -0.000806594 0.000748903 
0.000418005 -0.000837681 -4.65452e-05 0.00064694 -0.000223347 -0.000324457 0.000291874 3.6357e-05 -0.000181618 9.11127e-05 
3.21526e-05 -6.57259e-05 3.26789e-05 4.13356e-06 -1.69099e-05 1.20599e-05 -3.62605e-06 -1.26734e-06 2.34504e-06 -1.6519e-06 
7.46657e-07 -1.88427e-07 -3.39218e-08 7.691e-08 -5.86071e-08 3.31937e-08 -1.59057e-08 6.7887e-09 -2.65743e-09 9.74477e-10 
-3.40824e-10 1.1555e-10 -3.84925e-11 1.27115e-11 -4.17152e-12 1.35526e-12 -4.3246e-13 1.3438e-13 -4.00061e-14 1.25987e-14 
9.48883e-16 1.70356e-14 6.25989e-14 2.39224e-13 8.94526e-13 3.28276e-12 1.181e-11 4.16149e-11 1.43489e-10 4.83622e-10 
1.5915e-09 5.10673e-09 1.59535e-08 4.84366e-08 1.42624e-07 4.06283e-07 1.11631e-06 2.9475e-06 7.44459e-06 1.78811e-05 
4.05295e-05 8.5791e-05 0.000167109 0.000292969 0.000445779 0.000549577 0.000462668 9.33964e-05 -0.00027113 0.000263914 
-0.000657031 -0.00254753 -0.00460775 -0.00748219 -0.00960143 -0.00946519 -0.00564074 0.00172758 0.0101506 0.0159744 
0.0172376 0.0160958 0.0170465 0.0209633 0.0211658 0.00926369 -0.012043 -0.0254937 -0.0162446 0.00716204 
0.0187794 0.00741885 -0.00850409 -0.00831699 0.00194821 0.00443279 -0.000535735 -0.00142787 0.00089867 -0.000101901 
-0.00111415 0.000817119 0.000808335 -0.00104957 -0.000220024 0.000864808 -0.000268737 -0.000407401 0.000394254 -1.20416e-05 
-0.000204495 0.000148997 -9.62671e-06 -6.20387e-05 5.39614e-05 -1.84501e-05 -5.99723e-06 1.22862e-05 -8.74326e-06 3.66458e-06 
-5.06593e-07 -6.4626e-07 7.27439e-07 -4.82671e-07 2.4993e-07 -1.08609e-07 4.05816e-08 -1.30239e-08 3.47698e-09 -6.86744e-10 
4.28838e-11 4.37915e-11 -2.8557e-11 1.14944e-11 -3.53268e-12 8.1205e-13 -9.56522e-14 -3.04218e-14 2.72983e-14 -1.57331e-14 
-3.77108e-15 -3.46116e-14 -1.20412e-13 -4.37939e-13 -1.56199e-12 -5.48479e-12 -1.89339e-11 -6.41807e-11 -2.13358e-10 -6.94641e-10 
-2.21166e-09 -6.87485e-09 -2.08252e-08 -6.13442e-08 -1.75283e-07 -4.8442e-07 -1.29031e-06 -3.29831e-06 -8.04794e-06 -1.86162e-05 
-4.04554e-05 -8.1577e-05 -0.00014995 -0.000244484 -0.000337533 -0.000359322 -0.000225168 3.12422e-05 6.70162e-05 -0.000527264 
-0.000614967 0.000419348 0.00198018 0.0054352 0.0105229 0.016222 0.0200149 0.0189431 0.0115512 -6.90029e-05 
-0.01065 -0.0154639 -0.0148368 -0.0138433 -0.0153086 -0.0137125 -0.00105214 0.0182619 0.0249457 0.00725957 
-0.0174884 -0.01989 0.000988162 0.0148487 0.00563944 -0.00677565 -0.0042117 0.00237907 0.00103687 -0.00072833 
0.0010684 -0.000138134 -0.00174307 0.000910881 0.00131422 -0.00135485 -0.000345934 0.00113852 -0.000433625 -0.000430432 
0.000541175 -0.00014795 -0.000172505 0.000209517 -8.99506e-05 -1.80976e-05 5.43016e-05 -4.12165e-05 1.66958e-05 -4.82693e-07 
-5.22993e-06 5.02033e-06 -3.10124e-06 1.46523e-06 -5.37416e-07 1.35006e-07 -2.98126e-09 -2.27508e-08 1.82248e-08 -1.01338e-08 
4.72087e-09 -1.95418e-09 7.37758e-10 -2.5739e-10 8.35341e-11 -2.5282e-11 7.13028e-12 -1.86582e-12 4.50041e-13 -9.42296e-14 
3.11896e-14 4.40356e-14 1.69246e-13 6.03016e-13 2.11578e-12 7.30506e-12 2.47814e-11 8.2521e-11 2.69393e-10 8.60998e-10 
2.68995e-09 8.20073e-09 2.43477e-08 7.02347e-08 1.96312e-07 5.29947e-07 1.37625e-06 3.42164e-06 8.09461e-06 1.80786e-05 
3.77225e-05 7.24802e-05 0.000125563 0.000189729 0.000235883 0.000212933 9.14602e-05 -3.47217e-05 7.15811e-05 0.000323705 
0.000947732 0.00134521 0.00144847 0.000335264 -0.00327243 -0.0101131 -0.0195549 -0.0284631 -0.0319082 -0.0259593 
-0.0115986 0.00413833 0.0127663 0.0121106 0.00847717 0.00805747 0.00693238 -0.00364557 -0.0190695 -0.0191635 
0.00368865 0.0241285 0.0140936 -0.0124361 -0.0172471 0.0018498 0.0111932 0.00138472 -0.004577 -0.000605591 
0.000253606 -0.000358258 0.00204553 7.08906e-05 -0.00270729 0.00107158 0.0018914 -0.00185907 -0.000291717 0.00144423 
-0.000800826 -0.000280903 0.000668468 -0.00038858 -1.29588e-05 0.00019855 -0.00017219 7.23564e-05 2.60339e-06 -3.02939e-05 
2.79836e-05 -1.65404e-05 6.97082e-06 -1.77276e-06 -2.10487e-07 6.15476e-07 -4.88431e-07 2.87304e-07 -1.43942e-07 6.46747e-08 
-2.67472e-08 1.0336e-08 -3.76616e-09 1.30079e-09 -4.27009e-10 1.3334e-10 -3.95892e-11 1.11598e-11 -2.98127e-12 7.47379e-13 
-1.93255e-13 -1.5933e-14 -2.08213e-13 -7.07792e-13 -2.47755e-12 -8.49286e-12 -2.85907e-11 -9.43654e-11 -3.0504e-10 -9.64349e-10 
-2.97686e-09 -8.9563e-09 -2.62071e-08 -7.43944e-08 -2.04268e-07 -5.40563e-07 -1.37274e-06 -3.32718e-06 -7.64435e-06 -1.65014e-05 
-3.30705e-05 -6.05143e-05 -9.86431e-05 -0.000137691 -0.000153194 -0.000115543 -3.1192e-05 9.78704e-06 -7.35929e-05 2.73298e-05 
-0.000345264 -0.0013102 -0.00256348 -0.00420067 -0.00501045 -0.00317258 0.00338897 0.0151702 0.0290797 0.0381939 
0.0353116 0.0193915 -0.000836825 -0.0123394 -0.0101326 -0.00296356 -0.00188851 -0.00401771 0.00267074 0.0150519 
0.0117358 -0.0116343 -0.0237389 -0.00254008 0.0218601 0.0120102 -0.0125135 -0.01156 0.00486079 0.00619301 
-0.000761089 -0.0011791 -0.00167853 -0.00114048 0.00349199 0.000546625 -0.00398101 0.00153559 0.00238759 -0.00268372 
0.000194569 0.00160637 -0.00138339 0.000215043 0.000571249 -0.00062328 0.000295928 8.39363e-06 -0.000137306 0.000130733 
-7.58458e-05 2.78262e-05 -2.04411e-06 -6.53374e-06 6.75791e-06 -4.56872e-06 2.5227e-06 -1.22159e-06 5.37616e-07 -2.19944e-07 
8.50032e-08 -3.13976e-08 1.117e-08 -3.84279e-09 1.27939e-09 -4.11544e-10 1.2752e-10 -3.79284e-11 1.0793e-11 -2.92384e-12 
7.71125e-13 -1.25361e-13 2.53443e-13 7.45537e-13 2.62555e-12 8.98931e-12 3.01534e-11 9.90953e-11 3.18499e-10 9.99859e-10 
3.06057e-09 9.11709e-09 2.63699e-08 7.38555e-08 1.99655e-07 5.18929e-07 1.29058e-06 3.053e-06 6.81759e-06 1.42293e-05 
2.7388e-05 4.77014e-05 7.30778e-05 9.40285e-05 9.3248e-05 5.81452e-05 8.58676e-06 -3.03388e-07 1.15179e-05 -0.000178701 
-0.000293949 0.000123635 0.00103093 0.00318293 0.00671738 0.010874 0.0132831 0.0103405 -0.000593853 -0.0176496 
-0.0325344 -0.0342759 -0.0187388 0.00412252 0.0163593 0.0103495 -0.00116351 -0.00127156 0.00610956 0.00236005 
-0.0109795 -0.00830807 0.0133124 0.0175934 -0.00918888 -0.0235491 0.000715372 0.0205892 0.00420352 -0.0125925 
-0.00418975 0.00460587 0.00295307 0.000993855 -0.00345974 -0.002936 0.0053105 0.000900596 -0.00553876 0.00274456 
0.00238108 -0.00377268 0.00144347 0.00114759 -0.00187725 0.00109375 -5.23616e-05 -0.000493623 0.000517041 -0.0003052 
9.75929e-05 1.76718e-05 -5.24904e-05 4.66025e-05 -2.99177e-05 1.58702e-05 -7.31782e-06 3.01464e-06 -1.13175e-06 3.94719e-07 
-1.30907e-07 4.25117e-08 -1.39483e-08 4.72318e-09 -1.65018e-09 5.83332e-10 -2.03397e-10 6.85309e-11 -2.20283e-11 6.7049e-12 
-1.9476e-12 4.71166e-13 -3.48476e-13 -6.97653e-13 -2.59816e-12 -8.82694e-12 -2.96396e-11 -9.71586e-11 -3.11224e-10 -9.72199e-10 
-2.95673e-09 -8.7363e-09 -2.50175e-08 -6.92307e-08 -1.84492e-07 -4.71455e-07 -1.14928e-06 -2.65524e-06 -5.76557e-06 -1.1638e-05 
-2.15144e-05 -3.566e-05 -5.13218e-05 -6.08201e-05 -5.36235e-05 -2.7126e-05 1.10744e-07 5.49288e-06 2.7693e-05 9.88348e-05 
0.00037286 0.000680679 0.000866865 0.000408228 -0.00174528 -0.00664443 -0.0144542 -0.0229875 -0.0272213 -0.0214991 
-0.00482526 0.014504 0.0217819 0.00871403 -0.0143356 -0.0245198 -0.0120771 0.00464706 0.00264284 -0.0100843 
-0.00576908 0.0127593 0.0110858 -0.0117442 -0.0120269 0.0150505 0.0164971 -0.0145793 -0.0188708 0.00983427 
0.015166 -0.00443278 -0.00861487 -0.000643541 0.00432666 0.00473598 -0.00489536 -0.00512763 0.00782059 0.000295738 
-0.00705927 0.00516916 0.000965909 -0.004414 0.00343134 -0.000599272 -0.00137144 0.00171547 -0.00108184 0.000320378 
0.000141765 -0.000282131 0.000242099 -0.000151813 7.6627e-05 -3.17504e-05 1.04488e-05 -2.30057e-06 -5.97006e-08 4.16127e-07 
-2.89442e-07 1.42926e-07 -5.85548e-08 2.08756e-08 -6.58297e-09 1.83431e-09 -4.42305e-10 8.63407e-11 -1.03138e-11 -1.30038e-12 
1.44659e-12 -5.62575e-13 3.75311e-13 6.5238e-13 2.35953e-12 8.19443e-12 2.73651e-11 8.97713e-11 2.86838e-10 8.92794e-10 
2.70084e-09 7.92413e-09 2.24889e-08 6.15455e-08 1.61811e-07 4.06836e-07 9.72718e-07 2.19601e-06 4.63888e-06 9.0597e-06 
1.60922e-05 2.53941e-05 3.43476e-05 3.74862e-05 2.92427e-05 1.12155e-05 -4.05458e-06 -9.66702e-06 -2.00031e-05 3.18636e-05 
-4.88171e-05 -0.000456216 -0.0011364 -0.00223357 -0.00320519 -0.00271844 0.00139174 0.0109754 0.0252385 0.0386641 
0.0423285 0.0306899 0.00998554 -0.00222409 0.00712694 0.0280525 0.0330158 0.0109918 -0.012126 -0.0071637 
0.0106115 0.00327588 -0.0202757 -0.0141852 0.0148616 0.0119393 -0.0153955 -0.00690768 0.0207792 0.00597142 
-0.0211561 -0.00544679 0.0152911 0.00468635 -0.00752209 -0.00624182 0.0037143 0.00901218 -0.00688148 -0.00670634 
0.0113736 -0.0026311 -0.00720752 0.00850591 -0.00295876 -0.00272352 0.00464985 -0.00332128 0.00102692 0.000588685 
-0.00114427 0.000999224 -0.000621871 0.000293036 -9.56653e-05 7.77384e-06 1.8059e-05 -1.82634e-05 1.19902e-05 -6.42284e-06 
3.00188e-06 -1.26115e-06 4.83973e-07 -1.71269e-07 5.62133e-08 -1.71664e-08 4.88256e-09 -1.29187e-09 3.16655e-10 -7.12433e-11 
1.43796e-11 -2.47131e-12 3.74781e-14 -4.55936e-13 -2.2187e-12 -7.00916e-12 -2.4027e-11 -7.84091e-11 -2.50493e-10 -7.77309e-10 
-2.3411e-09 -6.82576e-09 -1.92131e-08 -5.20369e-08 -1.35068e-07 -3.3435e-07 -7.84566e-07 -1.73192e-06 -3.56157e-06 -6.73486e-06 
-1.15041e-05 -1.73004e-05 -2.20124e-05 -2.21128e-05 -1.50688e-05 -3.48512e-06 5.02639e-06 6.89931e-06 -2.42854e-06 -6.39099e-05 
-0.000166657 -0.00013517 0.000123104 0.00103384 0.0030331 0.00615318 0.00923888 0.00931339 0.00229644 -0.0139578 
-0.0353965 -0.0507888 -0.0489457 -0.0314746 -0.0167166 -0.0221007 -0.0384957 -0.0343937 0.000435386 0.0295423 
0.0177141 -0.0084029 0.000351342 0.0248177 0.00876482 -0.0254686 -0.0128841 0.0177343 0.00212898 -0.0171903 
0.00858276 0.0179799 -0.0123025 -0.0144275 0.00932098 0.0101409 -0.00350113 -0.0108625 0.00284192 0.0131924 
-0.0109081 -0.00571381 0.0151489 -0.00912702 -0.00300394 0.00982875 -0.00850591 0.00310198 0.00161085 -0.00360057 
0.00332361 -0.00209167 0.000906881 -0.000164304 -0.000155638 0.000218499 -0.00017453 0.000110496 -6.03026e-05 2.94037e-05 
-1.30601e-05 5.3474e-06 -2.0345e-06 7.23302e-07 -2.41248e-07 7.57032e-08 -2.23915e-08 6.24901e-09 -1.64585e-09 4.08945e-10 
-9.5915e-11 2.15036e-11 -4.72596e-12 1.83932e-12 1.10928e-12 6.25822e-12 1.96063e-11 6.52392e-11 2.0758e-10 6.43224e-10 
1.92983e-09 5.59571e-09 1.5633e-08 4.19329e-08 1.07533e-07 2.62271e-07 6.04477e-07 1.30587e-06 2.61673e-06 4.79632e-06 
7.88867e-06 1.13214e-05 1.35646e-05 1.25157e-05 7.25742e-06 1.87277e-07 -3.92555e-06 -1.90354e-06 9.98095e-06 1.5702e-05 
9.65076e-05 0.000296926 0.000562476 0.000760234 0.00032588 -0.00171117 -0.00639503 -0.0136678 -0.0207412 -0.0215709 
-0.00977806 0.0147568 0.0409519 0.0520536 0.0423879 0.0278361 0.0287512 0.0375513 0.0210454 -0.0262979 
-0.0544197 -0.0252076 0.0154745 0.00548072 -0.0203729 0.00355268 0.0342081 0.00460446 -0.0264905 -0.000510275 
0.0126689 -0.0120679 -0.00245652 0.0187541 -0.00344466 -0.0158229 0.00309398 0.0116777 0.000777515 -0.0148724 
0.00397798 0.0159937 -0.0178937 0.00114768 0.0149433 -0.0171717 0.00800006 0.00287482 -0.0087469 0.00883752 
-0.00575986 0.00230464 5.75614e-05 -0.00111381 0.00126846 -0.00100799 0.000662045 -0.000380592 0.000196877 -9.31297e-05 
4.07118e-05 -1.65703e-05 6.31437e-06 -2.2624e-06 7.647e-07 -2.44462e-07 7.40587e-08 -2.12908e-08 5.81299e-09 -1.50696e-09 
3.69768e-10 -8.47205e-11 1.69588e-11 -2.5226e-12 -1.97622e-12 -3.7816e-12 -1.62136e-11 -5.09655e-11 -1.63947e-10 -5.06429e-10 
-1.51534e-09 -4.37274e-09 -1.21345e-08 -3.22614e-08 -8.18059e-08 -1.96762e-07 -4.45858e-07 -9.43649e-07 -1.84481e-06 -3.28228e-06 
-5.20641e-06 -7.14222e-06 -8.06459e-06 -6.80536e-06 -3.21014e-06 8.33891e-07 2.30286e-06 -4.15674e-07 -3.61818e-06 2.14117e-05 
4.3731e-05 -4.67884e-05 -0.000297308 -0.000901917 -0.0019099 -0.00293765 -0.00272736 0.000906379 0.00994447 0.0235043 
0.0352026 0.0344345 0.0144499 -0.0174347 -0.040685 -0.0405946 -0.0271929 -0.0223086 -0.0218097 0.0051934 
0.055911 0.0680297 0.0104147 -0.04181 -0.0181091 0.0178806 -0.00930641 -0.0307039 0.0138542 0.033415 
-0.00867232 -0.0160836 0.00720304 -0.00469078 -0.00451663 0.0149131 -0.000316428 -0.0125787 -0.000638825 0.0108856 
0.00369502 -0.0189011 0.00953479 0.013729 -0.0250421 0.0157318 0.00280489 -0.0160225 0.0182999 -0.0126392 
0.00475501 0.00133713 -0.00437122 0.00490425 -0.00407698 0.00284695 -0.00175067 0.000970934 -0.000492682 0.000230961 
-0.000100739 4.11104e-05 -1.57673e-05 5.70463e-06 -1.95304e-06 6.3433e-07 -1.95858e-07 5.75855e-08 -1.61451e-08 4.32401e-09 
-1.11089e-09 2.77507e-10 -7.01396e-11 2.01036e-11 -6.07795e-12 6.64159e-12 1.0071e-11 3.93106e-11 1.22559e-10 3.803e-10 
1.13463e-09 3.26171e-09 8.99857e-09 2.37349e-08 5.95705e-08 1.41451e-07 3.15499e-07 6.55056e-07 1.25126e-06 2.16461e-06 
3.31745e-06 4.35762e-06 4.63941e-06 3.55822e-06 1.26299e-06 -8.97053e-07 -1.20546e-06 2.15671e-07 -1.93245e-06 -1.39266e-05 
-5.88907e-05 -0.000128441 -0.000180075 -6.52121e-05 0.000573118 0.00222753 0.00517054 0.00862986 0.00991352 0.00472456 
-0.00983332 -0.0301187 -0.043632 -0.0362668 -0.00770126 0.0216772 0.0288592 0.0162187 0.00650151 0.00135143 
-0.025311 -0.064057 -0.0493437 0.0304027 0.0704858 0.0127629 -0.0333623 0.00543825 0.0209578 -0.029548 
-0.0249203 0.0294359 0.0179649 -0.0139401 -0.00487505 -0.00387446 0.000823704 0.0114766 -0.00330101 -0.00663258 
-0.00244866 0.0095371 0.00416648 -0.0220099 0.0202614 0.000412217 -0.0212941 0.0281802 -0.020839 0.00730734 
0.00467301 -0.0115189 0.0132997 -0.0117815 0.00887603 -0.00592069 0.00356816 -0.00196631 0.00099899 -0.000470866 
0.00020698 -8.52397e-05 3.30228e-05 -1.20794e-05 4.18573e-06 -1.37799e-06 4.32048e-07 -1.29263e-07 3.69476e-08 -1.00856e-08 
2.61716e-09 -6.34685e-10 1.35618e-10 -1.99138e-11 -3.44451e-12 2.12856e-12 -1.13044e-11 -2.59295e-11 -8.87087e-11 -2.71802e-10 
-8.11415e-10 -2.32511e-09 -6.38393e-09 -1.67231e-08 -4.15913e-08 -9.76188e-08 -2.14615e-07 -4.37794e-07 -8.18482e-07 -1.37933e-06 
-2.04659e-06 -2.57874e-06 -2.58947e-06 -1.79003e-06 -4.03237e-07 6.93321e-07 6.80652e-07 2.34634e-07 1.37285e-06 -4.8093e-06 
-3.60224e-06 5.80082e-05 0.000199697 0.000481312 0.000831503 0.000876909 -0.000264659 -0.00386199 -0.0106428 -0.0189669 
-0.0233825 -0.0164241 0.00457079 0.0299509 0.0404335 0.0251324 -0.00173145 -0.0130625 -0.00390957 0.00322536 
0.00188038 0.0164347 0.0385402 0.00896453 -0.0635634 -0.0644757 0.0247388 0.0539284 -0.0115707 -0.0181768 
0.0325388 0.000293774 -0.0439625 0.00375993 0.0319962 0.000231728 -0.014373 -0.00913497 0.0103201 0.00807036 
-0.00969616 0.00222096 -0.0055892 0.010055 0.00042116 -0.0196057 0.0295852 -0.0228576 0.00596472 0.0107531 
-0.0213025 0.0249131 -0.0234551 0.0192584 -0.0142046 0.00952794 -0.00584748 0.0032974 -0.00171519 0.000826313 
-0.000370257 0.000154971 -6.08481e-05 2.25067e-05 -7.8738e-06 2.61516e-06 -8.27462e-07 2.50215e-07 -7.25443e-08 2.02571e-08 
-5.49683e-09 1.47914e-09 -4.11483e-10 1.26227e-10 -4.41365e-11 1.95022e-11 -1.91951e-12 2.18894e-11 5.87703e-11 1.86477e-10 
5.54241e-10 1.58602e-09 4.33833e-09 1.13004e-08 2.78859e-08 6.4786e-08 1.40608e-07 2.82285e-07 5.17506e-07 8.5133e-07 
1.22554e-06 1.48407e-06 1.4058e-06 8.65929e-07 6.28671e-08 -4.76423e-07 -3.98271e-07 -1.0105e-07 6.95221e-07 6.84239e-06 
2.65375e-05 4.45648e-05 3.47531e-05 -9.54909e-05 -0.000525402 -0.00145816 -0.00287639 -0.00404859 -0.00306377 0.00279346 
0.0148345 0.0293325 0.0360718 0.0242936 -0.00473715 -0.0317465 -0.0348181 -0.0155829 0.00105012 0.00317487 
0.00819077 0.0212505 0.0141201 -0.00938869 0.00727266 0.0514094 0.0216767 -0.0600464 -0.0435454 0.0364968 
0.0167151 -0.0272399 0.0219447 0.0266131 -0.0393557 -0.0195285 0.0317515 0.0145518 -0.0196887 -0.0149694 
0.0217256 0.000267251 -0.0131229 0.0123695 -0.013454 0.0161629 -0.010438 -0.00431062 0.0193886 -0.0280609 
0.0301338 -0.0285441 0.0254583 -0.0215467 0.0170203 -0.0123451 0.00815553 -0.00490178 0.00268793 -0.00135096 
0.000625611 -0.00026837 0.000107207 -4.00872e-05 1.41012e-05 -4.68899e-06 1.48066e-06 -4.45765e-07 1.2826e-07 -3.52292e-08 
9.14736e-09 -2.17587e-09 4.29424e-10 -4.09931e-11 -2.22894e-11 1.84309e-11 -1.40426e-11 -7.5442e-12 -4.09377e-11 -1.2084e-10 
-3.62704e-10 -1.03616e-09 -2.82765e-09 -7.33346e-09 -1.79813e-08 -4.14149e-08 -8.88835e-08 -1.75941e-07 -3.16929e-07 -5.10058e-07 
-7.14011e-07 -8.32623e-07 -7.44062e-07 -4.01742e-07 4.78929e-08 3.02503e-07 1.98783e-07 -1.24791e-07 -8.06436e-07 4.41979e-07 
-3.4064e-06 -3.39408e-05 -9.77873e-05 -0.00020587 -0.000289487 -0.000109718 0.00084069 0.00324689 0.0074108 0.0121187 
0.0136744 0.00702317 -0.00942252 -0.0277506 -0.0316194 -0.0105427 0.0233463 0.0409737 0.028145 0.00259351 
-0.0154307 -0.0309246 -0.0430128 -0.02307 0.019649 0.0191183 -0.0171809 0.00368873 0.050212 0.00530764 
-0.0508391 -0.00279866 0.0216472 -0.0206906 0.0104388 0.0346111 -0.0284358 -0.0276366 0.0256217 0.0209502 
-0.022329 -0.0152617 0.0303478 -0.0141927 -0.00392069 0.0127943 -0.0194302 0.0253908 -0.0255614 0.0194159 
-0.0126799 0.010342 -0.0123074 0.0151893 -0.0160705 0.0142877 -0.0108741 0.0072312 -0.00427181 0.00227087 
-0.00109734 0.000485973 -0.000198601 7.53445e-05 -2.66808e-05 8.86563e-06 -2.77931e-06 8.27089e-07 -2.3554e-07 6.49924e-08 
-1.77394e-08 4.94881e-09 -1.46902e-09 4.76641e-10 -1.67168e-10 6.17463e-11 -1.99692e-11 1.53094e-11 2.1771e-11 7.67095e-11 
2.26738e-10 6.49279e-10 1.76963e-09 4.57631e-09 1.11666e-08 2.55396e-08 5.42994e-08 1.06185e-07 1.88346e-07 2.9723e-07 
4.0558e-07 4.56424e-07 3.84789e-07 1.77839e-07 -6.64888e-08 -1.78284e-07 -7.9905e-08 1.20302e-07 5.4691e-09 -2.679e-06 
-1.04229e-05 -1.36219e-05 1.12325e-06 7.90753e-05 0.000298444 0.000734538 0.00132814 0.00161329 0.000412466 -0.00406453 
-0.0129994 -0.024478 -0.0317239 -0.0261996 -0.00708695 0.0111471 0.00778254 -0.0192419 -0.0427833 -0.0354044 
-0.00477351 0.0209064 0.0322394 0.0275986 -0.00809909 -0.0514724 -0.0347721 0.0214497 0.0151831 -0.0219395 
0.011123 0.0353012 -0.0139123 -0.0197716 0.00461819 -0.0129942 0.012333 0.0275034 -0.0242696 -0.0187079 
0.0174195 0.0176375 -0.0199662 -0.00970925 0.028069 -0.0242192 0.0153004 -0.00875823 -0.000621682 0.0132753 
-0.0213303 0.0186202 -0.00710967 -0.00608439 0.0148963 -0.0174576 0.0153226 -0.0111597 0.00704427 -0.00394641 
0.00199189 -0.000915273 0.000385868 -0.000150176 5.42322e-05 -1.82518e-05 5.74588e-06 -1.69654e-06 4.70019e-07 -1.21595e-07 
2.88621e-08 -5.96582e-09 8.88076e-10 2.33724e-11 -9.56158e-11 5.32389e-11 -2.36027e-11 3.46961e-12 -1.70003e-11 -4.4682e-11 
-1.36408e-10 -3.90373e-10 -1.0646e-09 -2.74929e-09 -6.68697e-09 -1.52141e-08 -3.21048e-08 -6.21525e-08 -1.08798e-07 -1.68766e-07 