# vtk DataFile Version 2.0
Titre
ASCII
DATASET STRUCTURED_POINTS
DIMENSIONS 100 100 1
ORIGIN 0.0 0.0 0.0
SPACING 0.1 0.1 0.0
POINT_DATA 10000 
SCALARS rho float
LOOKUP_TABLE default
-0.000204883 0.000424176 -0.0015638 0.000303028 -0.000660191 0.000201073 0.00300279 0.00146767 -9.26561e-05 -0.00165885 
-0.00087259 -0.000153296 0.000272239 -0.000220025 2.11304e-05 0.00051821 0.000911165 0.000410059 -0.000432419 -0.000811202 
-0.000156759 0.000895576 0.00104951 5.52982e-05 -0.000936754 -0.000863446 -1.05582e-05 0.000545052 0.00059734 0.00027973 
-7.64607e-05 -0.000503165 -0.000361033 -1.75822e-06 0.000182763 0.000247374 0.000272958 5.39065e-05 -0.000150689 -7.17997e-05 
-0.000209008 -0.0001197 1.33128e-06 -8.46512e-05 4.22677e-05 2.04056e-05 -2.27233e-05 6.78883e-05 -1.61337e-05 3.14004e-05 
5.22208e-05 4.5131e-06 9.49419e-05 3.23167e-05 8.58869e-05 8.48725e-05 5.45048e-05 0.000111549 2.33785e-05 7.57107e-05 
5.64273e-06 -1.25543e-05 -3.02261e-05 -0.000128672 -0.00011709 -0.000239961 -0.000201671 -0.000262329 -0.000211238 -0.00015454 
-7.09533e-05 8.33221e-05 0.0001781 0.000317897 0.000313028 0.000306336 0.000135723 -2.193e-06 -0.000198639 -0.000242544 
-0.000223591 -3.0018e-05 0.000179959 0.000361122 0.000350816 0.000117805 -0.000271557 -0.000663955 -0.000791631 -0.000533534 
0.000161373 0.000815843 0.00109175 0.000846262 -0.000127923 -0.00127675 -0.000474937 -0.000356322 0.000621521 0.00019203 
0.000708329 0.000368297 -0.00151306 0.00191309 -0.00115156 0.00202738 -0.000367256 -0.00103703 -0.00248038 -0.00129387 
-0.000443045 0.00154369 0.00110307 0.0005079 -0.00092057 -0.000483224 0.000256829 0.000709586 -0.000147245 -0.00049489 
2.90039e-05 0.000528654 1.63049e-05 -0.000600122 -0.00030044 0.000243516 0.000311482 -8.06653e-06 7.48983e-05 0.000133244 
-0.000142025 -0.000189117 6.80961e-05 4.18808e-05 -0.000215302 9.77815e-05 -4.51561e-05 -0.000166049 0.000103865 3.5062e-05 
-3.68861e-05 0.000168906 4.03296e-05 -1.7695e-05 0.000178654 -5.49413e-05 5.26039e-05 7.1525e-05 -0.000126845 7.8254e-05 
-0.000109469 -5.82788e-05 -1.10341e-05 -0.00016749 -2.86327e-06 -0.000155515 -7.10131e-05 -7.07672e-05 -0.000101804 1.5659e-05 
-4.99186e-05 9.88559e-05 5.80084e-05 0.000152959 0.000176553 0.000141688 0.000190552 3.97992e-05 4.95357e-05 -0.000164924 
-0.000178154 -0.000332661 -0.0002833 -0.000255582 -6.61938e-05 0.000102172 0.000303086 0.000368972 0.000327628 0.000108974 
-0.000129177 -0.000363141 -0.000347645 -0.000178856 0.000236755 0.000540959 0.000719808 0.000463723 -7.11149e-05 -0.000743129 
-0.00106952 -0.000707834 -0.00020309 0.000567655 0.00161139 -0.00026901 -0.000770208 -0.000970013 -0.00012695 -0.000465058 
0.00230543 -0.00215551 0.00188895 0.000207835 0.00119505 0.00132873 0.000762866 0.000213487 0.00087871 0.000301575 
0.000606094 -0.000311702 -0.000995763 -0.00092661 -3.74504e-05 0.00108713 0.00058144 -0.000543477 -0.000941653 0.000129413 
0.000620805 1.4093e-05 -0.000587639 -3.9442e-05 0.000419859 0.000197659 -0.000269549 -5.4277e-05 5.94454e-05 -0.000135886 
-0.000344933 0.000148016 0.000153362 -9.94932e-05 0.000166801 0.000265388 -9.15944e-05 7.40268e-05 0.00023763 -0.000266734 
5.11515e-05 -1.35722e-05 -0.000342948 8.24959e-05 -0.000162973 -0.000185173 0.000110682 -0.000221756 5.40349e-05 6.82813e-05 
-7.55809e-05 0.000255132 -1.4389e-05 0.000187385 0.000169138 4.85593e-05 0.000265563 -5.48496e-06 0.000169174 1.35676e-05 
-5.39128e-05 -1.6003e-05 -0.000234455 -0.000138474 -0.000300009 -0.000221431 -0.000230753 -0.000169656 -2.90375e-05 1.89165e-05 
0.000189094 0.000174231 0.000274786 0.000121121 0.000137177 -6.2115e-05 -2.94879e-05 -0.000117369 4.09041e-05 4.70264e-05 
0.000204585 0.000109019 9.38986e-05 -0.000124049 -0.000195577 -0.00030779 -0.000272289 -0.00012693 5.41444e-05 0.000235861 
0.000242219 0.000625331 0.000677976 -0.000460715 0.00060528 -0.000155379 -0.000222947 -0.00133616 0.00115441 -0.00144872 
-0.00182373 -0.00133817 -0.000249155 -0.000276165 -0.000453631 0.000600473 -0.00150526 -0.00075223 -0.00209115 -0.00161245 
-0.000609774 0.000462371 0.00139643 0.00114185 0.000197939 -0.00089152 -0.00116287 -0.000182004 0.000825229 0.000582631 
-0.000464199 -0.000571342 0.000245333 0.000444841 -0.000200426 -0.000428563 -7.20252e-06 0.000181473 -7.68336e-06 -8.0556e-05 
0.000322037 0.000301242 -7.23537e-05 -0.000126978 0.000147336 -0.000371031 -0.00028131 0.000119497 -0.000286607 -0.000120905 
0.000248055 -0.000127401 0.000149292 0.000379915 -7.74719e-05 0.000334989 0.000161275 -9.21553e-05 0.000326997 -0.000176846 
1.93114e-05 -2.937e-06 -0.000336635 2.21782e-05 -0.000353754 -0.00013798 -0.000156174 -0.00022961 2.17896e-05 -0.000120745 
0.000142851 0.000101191 0.000229121 0.000295832 0.000241629 0.00030598 0.000129243 0.000105694 -0.000132582 -0.000186271 
-0.000340062 -0.000355416 -0.000289729 -0.000184174 1.27802e-05 0.000146456 0.000282598 0.000228096 0.000174501 -3.72381e-05 
-0.000147269 -0.000236485 -0.000171916 1.88589e-05 0.000201212 0.000446167 0.000318314 0.000170462 -0.000214915 -0.00042031 
-0.000948891 -0.00079131 0.000874151 -0.000104106 0.000846817 -0.000638976 0.000373179 -0.0030177 0.0010935 -0.000404751 
0.00231731 0.000289419 0.00338654 0.000713846 0.00266643 0.00150711 0.000630723 0.00134016 0.000199491 0.00176481 
0.00121905 0.000623705 -0.00121384 -0.00214071 -0.0014223 0.00038719 0.00155699 0.000894646 -0.00054089 -0.00119117 
-5.0014e-05 0.00070985 0.000310347 -0.000700752 -0.00018167 0.00041945 0.000364483 -0.00017153 1.48111e-05 9.56772e-05 
-7.02313e-05 -0.000369812 -0.000299025 5.5356e-05 -8.6133e-05 -5.36125e-06 0.000439422 0.000302928 -2.39862e-05 0.000433286 
2.62936e-05 -0.000226986 0.000230437 -0.000384735 -0.000284829 -7.81632e-06 -0.000545439 -8.24982e-08 -0.000105196 -0.000261903 
0.00028846 -0.000161313 0.00027211 0.000251224 9.90913e-05 0.000478927 4.12822e-05 0.000322648 5.23323e-05 -1.56967e-05 
-3.59613e-05 -0.000288571 -0.000207094 -0.000399059 -0.00027689 -0.000292999 -0.000168395 7.91722e-06 9.36164e-05 0.000266588 
0.000274619 0.000310456 0.000133825 8.5335e-05 -0.000134792 -0.00013742 -0.000174387 7.77636e-07 8.11135e-05 0.000279708 
0.000193353 0.000190497 -0.00014226 -0.000196534 -0.000439374 -0.000183693 -9.13991e-05 3.69683e-05 4.70502e-05 0.000431664 
0.00050167 -0.000763361 0.00113538 -0.000113516 0.00152667 -0.00115777 0.00204719 -0.0028945 -0.00131053 0.000511878 
-0.00212346 -0.00267984 7.93875e-05 -0.00287493 0.00110008 -0.00215676 -0.000377728 -0.00180052 -0.00156324 -0.0011901 
-0.00113772 -0.000599087 0.000332213 0.00155415 0.002134 0.000774773 -0.00119338 -0.00192558 -0.00044116 0.00121723 
0.00106099 -0.000508149 -0.000946978 0.000244604 0.000857732 -3.65331e-05 -0.000713868 -4.00591e-05 0.000109707 -0.000191345 
-0.00019824 0.000353031 0.000329378 0.000237065 0.00012972 0.000174141 -5.84196e-05 -0.00051067 -0.000216913 -0.000261283 
-0.00046999 7.14575e-05 3.53692e-05 -9.6059e-05 0.000472575 0.000178879 0.000220469 0.000556983 -4.42617e-05 0.000272746 
5.55889e-05 -0.000257302 8.51647e-05 -0.000462677 -0.000152684 -0.000355961 -0.000343105 -0.000120035 -0.000279652 0.000138948 
-8.07231e-06 0.000332047 0.00027318 0.000374809 0.000339656 0.000217941 0.000153878 -0.000121531 -0.000131634 -0.000350487 
-0.000313942 -0.000263949 -0.00016062 6.5825e-06 0.000109462 0.000204678 0.000117542 0.000136896 -6.19627e-05 2.35207e-05 
-0.000105125 0.000115574 3.59551e-05 0.000190331 3.8358e-05 2.9766e-05 0.00029133 0.00026574 -0.00013765 -0.000474258 
0.000563194 -0.00170607 0.000380288 -0.00144355 0.00226433 -0.00264492 0.00191444 -0.000222994 -0.00126695 -0.0018921 
-0.000628291 0.00294768 0.0015923 0.00263255 0.00282039 0.00123487 0.00134362 0.000504068 0.000837903 0.00160499 
0.00129923 0.000863733 -0.000497824 -0.00173717 -0.00223219 -0.00172608 0.000335506 0.00194244 0.00166019 -0.000407846 
-0.00167013 -0.000491329 0.00102316 0.000795115 -0.000821785 -0.000811257 0.000374675 0.000666363 -0.000175562 -3.55255e-05 
0.000589056 4.03999e-05 -0.000454305 -0.000348588 -0.000133951 -0.00041679 -0.000185505 0.000193213 0.000329865 0.000306447 
0.000472 0.000434509 -5.70885e-05 0.000125109 -0.000110352 -0.000484681 -8.43161e-05 -0.00050151 -0.000387295 -6.23832e-06 
-0.000391634 0.000287261 8.36975e-05 0.000187238 0.000564432 7.0217e-05 0.000613509 6.10346e-05 0.0002645 1.23964e-05 
-0.000224254 -9.41167e-05 -0.000542417 -0.000177809 -0.000470641 -0.000125407 -9.80523e-05 0.000119927 0.00021947 0.00032216 
0.000303156 0.000173424 0.000118484 -9.83963e-05 -0.000137122 -0.000154271 -0.000117348 2.1984e-05 5.34369e-05 0.000141157 
3.53995e-05 -2.66112e-05 -7.0728e-05 -0.000146563 1.98542e-05 -0.000482362 -0.000264311 0.000106637 0.000280113 -0.000714335 
0.00192102 -0.000453624 0.00244837 -0.00227653 0.00373824 -0.00185462 -0.000613052 -0.000273076 -0.000755607 0.00102532 
0.00199482 -0.000901574 0.00128681 -0.000944427 0.000868826 -0.00171418 -0.000477177 -0.00136285 -0.000770531 -0.000451807 
-0.00117926 -0.000737835 -0.000302714 0.00146614 0.00275925 0.00240371 0.00082815 -0.00179419 -0.00230973 -0.000943006 
0.00155052 0.00151392 -0.00030722 -0.00147826 -8.7411e-05 0.00111232 0.000564432 -0.000718649 -0.000260973 0.000283788 
-0.000215701 -0.000827092 4.32252e-05 0.000577516 0.000159419 0.000321493 0.000551279 0.000174019 -0.00028785 -0.000121745 
-0.000388187 -0.000707762 -0.000188328 -0.000174797 -0.000154014 0.000402566 0.000263724 0.000270104 0.000596497 0.000144016 
0.000245865 0.000162727 -0.000395729 1.59069e-06 -0.000604741 -0.000345699 -0.000275174 -0.000566545 0.000158788 -0.000319904 
0.000377501 0.000146225 0.000423584 0.000391272 0.00025045 0.000320462 -0.000147694 6.56053e-05 -0.000433713 -0.000179734 
-0.000364914 -0.000118572 -0.000131231 0.000120863 4.24762e-05 0.000153794 2.03167e-05 2.96777e-05 -1.70181e-05 1.85593e-05 
0.000162234 -9.42922e-06 0.000128651 -0.000275273 0.000306221 6.68644e-05 -0.000312578 7.90931e-05 0.000941893 -0.00199089 
0.000713574 -0.0033775 0.00297051 -0.00407916 0.00215018 0.000669229 -0.000612132 0.000312432 -0.00132563 -0.00161048 
-0.00298721 -0.000405648 -0.000674795 -0.000399036 0.000787973 -0.00151043 0.00037117 -0.00108184 0.000446379 0.000426526 
0.00031668 0.000588638 -0.000416311 -0.000894684 -0.00266873 -0.0030798 -0.00192273 0.000731768 0.00287194 0.00219543 
-0.000413092 -0.00229333 -0.000972733 0.00140071 0.00132171 -0.000674054 -0.00129461 0.000145546 0.00058394 -0.000124015 
-0.00038135 0.000703986 0.000728543 -3.10389e-05 -0.000478775 -9.63221e-05 -0.000479691 -0.000754663 4.88073e-05 0.000159721 
2.10056e-05 0.000561962 0.000658578 9.22383e-05 0.000343308 5.88418e-05 -0.000576745 -0.000107319 -0.000494663 -0.000586858 
6.60942e-05 -0.000444629 0.000161234 0.000391206 4.45118e-05 0.000860663 8.99747e-05 0.000570797 0.000152158 -0.000113774 
0.000120307 -0.00068147 -2.56e-05 -0.0007137 -0.000133644 -0.000292549 -6.1042e-06 0.00015076 0.000211461 0.000360102 
0.000148228 0.000304225 -9.06798e-05 9.02887e-05 -0.000182577 3.78564e-06 -8.48767e-05 -1.1699e-05 7.17235e-06 -0.000174118 
0.000133387 -5.03066e-05 0.000364885 -0.000168939 -8.30671e-05 0.000602017 -0.000469683 -0.00109972 0.00204442 -0.00135896 
0.00431911 -0.00364935 0.00501982 -0.00158247 -0.000518084 0.00103191 -0.00128462 -0.000693909 0.000538742 -0.000394122 
0.00187248 0.00359918 0.00213306 0.00373098 0.00205528 0.00134604 0.00173672 0.000670812 0.00167178 0.000639582 
0.00027033 5.77248e-05 6.03103e-05 0.00162178 0.00224298 0.00366163 0.0025541 0.000620117 -0.00265175 -0.00319559 
-0.00134075 0.00204013 0.00228149 1.23682e-05 -0.00227773 -0.000622209 0.00134775 0.00100898 -0.000779407 -0.000215778 
0.000680302 1.41452e-05 -0.000887566 -0.000610014 9.62599e-05 4.94516e-05 0.000226803 0.00066301 0.000706435 -5.24281e-05 
-0.000132401 6.24875e-05 -0.00078935 -0.000439946 -4.81568e-05 -0.000548582 0.000337697 0.000421909 0.000148531 0.000787149 
0.000230717 0.000107938 0.00032071 -0.000471655 -0.000158045 -0.000398466 -0.000725692 -1.76529e-05 -0.000620662 0.000246178 
-2.99403e-05 0.000391404 0.000447636 0.000304075 0.00055438 -5.37877e-05 0.000328018 -0.000410002 -4.32189e-06 -0.000449034 
-0.000119757 -0.000252223 3.84236e-05 -6.46773e-05 0.000167604 -4.79221e-05 0.000233933 -7.77608e-05 0.000376986 -0.000138615 
0.000131792 -0.000239264 4.34768e-05 7.60399e-05 -0.00115215 0.000541183 0.00110439 -0.00227117 0.00245269 -0.00514397 
0.00467159 -0.00566372 0.00125126 0.00116543 -0.00121856 0.00121957 0.000627764 -0.00124967 -0.00133095 0.000585253 
0.000781169 -0.00247674 -0.00170984 -0.0025664 -0.00351941 -0.00357733 -0.00324669 -0.00310264 -0.00179262 -0.00210933 
-0.00112721 -0.00120018 -0.000653858 -0.00131018 -0.00256117 -0.00351631 -0.00357032 -0.00139189 0.00162621 0.0039617 
0.00286157 -0.000587418 -0.0030161 -0.00170091 0.00150996 0.00214254 -0.000166354 -0.00185026 -6.76501e-05 0.000891213 
-0.000277836 -0.00109917 0.000532969 0.000904765 0.000228026 0.000190082 0.000209224 -0.000286117 -0.000879143 -0.000462315 
-5.09303e-05 -8.51765e-06 0.000220315 0.000701593 0.000297636 0.000150803 0.000402051 -0.00051261 -0.000304719 -0.000352112 
-0.0007902 -2.79859e-05 -0.000283696 5.423e-05 0.00048451 9.46894e-05 0.000780107 0.000197095 0.000310541 0.000289394 
-0.000481773 0.000145772 -0.000814911 -9.69815e-05 -0.000553692 -0.000119991 -1.55085e-05 4.21386e-05 0.000386197 7.5531e-05 
0.000487413 -0.000145993 0.000372508 -0.000376983 0.000277341 -0.000503616 0.000185582 -0.000557507 0.000121988 -0.000122199 
7.45715e-06 0.000108493 -0.000153358 0.00158372 -0.000572846 -0.00127943 0.00264665 -0.00384413 0.00588255 -0.0058569 
0.00601017 -0.000491178 -0.00158204 0.0019676 -0.000577072 -0.000863943 0.000297633 -4.69745e-05 -0.000752184 -0.00155779 
-0.00217922 -0.000221535 0.000921349 0.00192854 0.00231186 0.00294216 0.00321565 0.00353242 0.00352499 0.00261307 
0.00224604 0.001268 0.00166551 0.00143015 0.00260953 0.00336131 0.0039275 0.00229104 -0.000671377 -0.0039523 
-0.00425433 -0.00146521 0.00279779 0.00314707 0.000275125 -0.00273837 -0.00125771 0.00119094 0.00143154 -0.000764103 
-0.000745356 0.00109702 0.000845397 -0.000779197 -0.000785146 0.000125391 -0.000543304 -0.000454447 0.000567847 0.000703572 
0.000368504 0.000159222 6.27729e-05 -0.0005009 -0.000637285 -3.48655e-05 -0.000493751 3.44848e-05 0.000612197 6.80309e-06 
0.000865969 0.000415061 1.16256e-05 0.000379437 -0.000508773 -0.000306285 -0.00029874 -0.000730678 2.80154e-05 -0.000461117 
0.000306116 0.000125613 0.000326962 0.000558998 5.26406e-05 0.000495762 -0.000309194 0.000131395 -0.00046039 -0.000175213 
-0.000252076 -0.000225016 8.30537e-05 -0.000130269 0.000321175 6.47192e-05 0.000341206 0.00022864 -0.000174579 0.000541935 
-0.000286898 0.000403843 -0.0018088 0.000479813 0.00140744 -0.00346302 0.00497797 -0.00667422 0.00696539 -0.0057703 
-0.000353946 0.00229387 -0.00224187 0.00023632 0.00136149 -3.77786e-05 -5.95161e-05 -0.000461754 -0.000651144 -0.000276844 
0.00122438 0.0022405 0.00159217 0.00135554 -0.000702317 -0.00140953 -0.00241564 -0.00249787 -0.00273842 -0.00277169 
-0.00240147 -0.00198623 -0.00130314 -0.00172663 -0.00226005 -0.00329158 -0.00380856 -0.00280046 -0.000152968 0.00358773 
0.00517221 0.0034412 -0.00117569 -0.00409669 -0.00248265 0.00185969 0.00285818 2.0165e-05 -0.00207214 -0.000160821 
0.0012536 6.12233e-05 -0.00153285 -0.000377408 0.000923583 0.000212416 3.68353e-05 0.000678753 0.000518094 -0.000698575 
-0.000509995 -0.00017446 -0.000470734 0.000198102 0.00062425 0.000431357 0.00018002 0.000425002 -0.000354121 -0.000462443 
-0.000123426 -0.00104475 5.34311e-05 -0.000328905 -4.98455e-05 0.000754487 -4.61429e-05 0.000828733 0.000274135 -1.90101e-05 
0.000429314 -0.000721395 0.000227775 -0.000818074 7.66472e-05 -0.000376227 0.000105191 0.000166749 0.00020694 0.000387927 
0.000127594 0.000319753 -0.000150459 0.000163525 -0.000546519 0.000211496 -0.000769749 0.000700779 -0.00112346 0.000435402 
-0.000481803 0.00169777 -0.00021274 -0.00166974 0.00440606 -0.00587979 0.00729429 -0.00790087 0.00493714 0.00119722 
-0.00300612 0.00234682 0.000605196 -0.00139499 0.000309567 0.000162656 -0.000153801 -1.68054e-05 -0.000710801 -0.000449309 
7.22754e-05 -0.00177613 -0.00193586 -0.00246164 -0.00304014 -0.00186313 -0.00103031 0.000219161 0.00103031 0.000849203 
0.00138928 0.000736664 0.00140216 0.000774289 0.00191225 0.00250905 0.00337195 0.00291743 0.000449034 -0.00283302 
-0.00601595 -0.00496064 -0.00102791 0.00392148 0.00420932 0.000547241 -0.00340995 -0.00208693 0.00158566 0.00184984 
-0.00107172 -0.00144826 0.00110017 0.00128267 -0.000170418 -0.00058226 0.000194409 -0.000298523 -0.000833402 -0.000151432 
0.000470755 0.00033263 0.000216423 0.000414358 -0.000262 -0.000790165 -0.000221029 -0.000323034 -0.000353473 0.000696515 
0.000205056 0.000432412 0.000853084 -0.000192997 0.000424277 -0.000365812 -0.000510443 -0.000186824 -0.000814148 0.000133134 
-0.000363671 0.000209473 0.000401484 -3.84982e-05 0.000722674 -0.000379745 0.000521408 -0.000663376 0.000160454 -0.000589597 
-0.000111851 -0.000117778 -0.000195801 0.000547806 -0.000384949 0.000831425 -0.000790103 0.0011282 -5.02625e-05 -5.66438e-05 
-0.000951184 -0.000270427 0.00215765 -0.00524968 0.00632498 -0.00792273 0.00822117 -0.00398938 -0.00205499 0.00361669 
-0.00196059 -0.00147469 0.00159585 -0.000129361 -0.000211312 0.000626048 -1.14565e-06 -0.00040041 -0.000531431 -0.00100793 
-0.00134543 -0.000612351 0.00114823 0.0019989 0.00258993 0.00382726 0.00330833 0.00366213 0.0025435 0.00165932 
0.00162114 0.000567145 0.00144658 -0.00040286 0.000174357 -0.00202898 -0.00189344 -0.00265326 -0.000292495 0.00256707 
0.00604252 0.00653971 0.00318346 -0.00266135 -0.00550608 -0.00298642 0.00222758 0.0036106 0.000459518 -0.00266404 
-0.000726155 0.00205674 0.000757347 -0.00170331 -0.000833615 0.000750711 -0.000243796 -0.000240675 0.000687818 0.000591837 
-4.32223e-05 -0.00035648 1.82271e-06 -0.000489778 -0.000189471 0.000543506 0.000422161 0.000441937 0.000403252 -8.07163e-05 
-0.00060009 -7.12407e-05 -0.000966592 -0.00019238 -3.54959e-05 -0.000390323 0.000832259 2.08835e-05 0.000561824 0.000517488 
-0.000242542 0.000494406 -0.000756186 0.000282089 -0.000676076 0.000133608 -0.000141152 0.000178355 0.000227926 0.000314115 
9.24965e-05 0.000275071 -0.000412622 0.000305363 -0.000470894 0.000372789 -0.000544004 -0.000830189 0.00115486 -0.000110582 
0.00070504 -0.00246713 0.00550108 -0.00619376 0.00827309 -0.00801664 0.00299568 0.00275658 -0.00414535 0.00104272 
0.00226614 -0.00152977 -9.97691e-05 0.000770016 -0.000511119 -0.000119148 0.000325005 -6.36952e-06 -0.000394711 -0.000613456 
-0.000110058 0.00153718 0.00182358 0.000219902 -0.000950775 -0.00268225 -0.00411493 -0.00418023 -0.00543626 -0.00466503 
-0.00471722 -0.00392731 -0.00304022 -0.00297634 -0.00106525 -0.000770878 0.00130392 0.000742507 0.000434852 -0.00310979 
-0.00588065 -0.00771116 -0.00487736 0.000533 0.00585208 0.0055114 0.000139995 -0.00424917 -0.00267262 0.00185956 
0.00231565 -0.00070263 -0.00233608 0.000452379 0.00158404 6.09447e-05 -0.000568819 0.000716378 0.000183033 -0.0010598 
-0.000116004 0.000132256 9.77783e-05 0.000101417 0.000368795 6.46689e-05 -0.000685434 -0.000259872 -0.000532689 -0.000333414 
0.000334158 0.000440103 0.000336603 0.000903372 -0.000110272 0.000415117 -0.000257314 -0.000416082 -9.31024e-05 -0.000731122 
3.6788e-05 -8.56786e-05 -0.000186102 0.000748286 -0.000540355 0.00103965 -0.00097313 0.000946182 -0.00127839 0.000867943 
-0.00110263 0.000941509 -0.000744757 0.000466908 -0.000169846 0.000172486 0.00145586 -0.00199406 0.000655939 -0.000394978 
0.00195059 -0.00463343 0.00544919 -0.00815236 0.00746481 -0.0022475 -0.00353384 0.00423941 7.08099e-05 -0.00284629 
0.0011978 0.000625797 -0.00115057 0.000362268 0.000522466 -9.19165e-05 8.04252e-06 -0.000126849 -0.000347867 -0.000319159 
1.87699e-05 0.000481211 -0.00104016 -0.00210331 -0.00158887 -0.00148698 0.00148482 0.00272177 0.0044665 0.00556633 
0.0057732 0.00637783 0.00543654 0.00493669 0.00356136 0.00236867 0.000899957 0.000295925 0.000904097 0.00311813 
0.00613543 0.00824955 0.0065265 0.00116194 -0.00527244 -0.00711722 -0.00343684 0.00324543 0.00469669 0.000520575 
-0.00339534 -0.00107934 0.00225873 0.00129408 -0.00122602 -0.000925876 0.000626732 -0.000143045 -0.000887158 0.000348516 
0.000701549 4.05308e-05 -0.000223538 -4.61349e-05 -9.46226e-05 -0.000379613 0.000284637 0.00061045 0.000135554 0.000683308 
0.000151083 -0.000654763 -5.07322e-05 -0.000836082 -0.000625213 0.000290551 -0.000752245 0.000870009 -0.000179614 0.000526167 
0.000275767 -2.02999e-05 0.00020562 -0.000272253 -0.000146366 0.000123698 -0.000498818 0.000760138 -0.000707001 0.000904942 
-0.000733618 0.000622269 -5.21137e-05 -0.000284167 0.000196377 -0.00187511 0.00244327 -0.000563407 -0.000641063 -0.000589524 
0.00298466 -0.00450649 0.00789321 -0.00714808 0.00187308 0.00423879 -0.00386287 -0.00129135 0.00301288 -0.000759091 
-0.00132934 0.00127592 0.000157042 -0.000652253 0.000169612 6.92738e-05 5.23001e-05 8.64862e-05 -0.000320215 -0.000505816 
-0.000120942 5.53918e-05 -0.000675006 0.00111536 0.00152358 0.00239998 0.00325425 0.000865603 0.000248189 -0.00307736 
-0.00368774 -0.00539833 -0.0055832 -0.00551547 -0.00486645 -0.00334434 -0.00255712 -0.00122325 -0.00193813 -0.00332163 
-0.00639928 -0.00807864 -0.00758216 -0.00265256 0.00422282 0.00859789 0.00613969 -0.000796694 -0.00533669 -0.0034792 
0.00226847 0.00316357 -0.000548519 -0.0028709 0.000158359 0.00153059 -0.000355212 -0.000440557 0.000626401 0.000806737 
-0.000824863 -0.000293581 0.000204757 -0.00013062 0.000392203 9.57722e-05 0.000134522 -0.000431566 -0.000383494 -0.000438395 
-0.000405667 5.39973e-05 0.000504869 0.000254047 0.000952991 0.000142249 0.000229465 0.000212506 -0.000754629 0.000485293 
-0.000971677 0.000371705 -0.000346624 1.63507e-05 0.000260538 -0.000325971 0.000536451 -0.000628534 0.000798697 -0.000993528 
0.00102867 -0.00174542 0.00187822 -0.00139237 0.00277812 -0.00311253 0.000529643 0.00167653 -0.000894043 -0.00146604 
0.00401411 -0.00801394 0.0075352 -0.001711 -0.0047905 0.00309657 0.00227075 -0.00295762 9.42357e-05 0.00194869 
-0.00104065 -0.000798532 0.000732822 -4.16837e-05 -8.08156e-05 0.000257301 -5.47871e-05 -8.70263e-05 -0.000166112 -0.00035726 
2.26703e-05 -0.000149906 0.00092439 0.00118398 -0.000579184 -0.000921833 -0.0029856 -0.00387061 -0.00348652 -0.00337716 
-0.000416682 0.000196382 0.00271042 0.00259567 0.00346782 0.00262537 0.00208587 0.00151208 0.00188458 0.00315825 
0.00582183 0.00773306 0.00774241 0.00312998 -0.0031531 -0.00930577 -0.00877329 -0.00261464 0.00522342 0.00554312 
0.000465423 -0.00392028 -0.00167753 0.00222901 0.00182682 -0.00108802 -0.00104326 0.00120678 -4.83005e-05 -0.00102367 
-7.43674e-05 0.000543233 0.000166294 -0.000129042 8.1157e-07 -0.00045775 -7.47993e-05 -0.00013033 0.000735375 0.000185022 
0.000519127 0.000316151 -0.000336587 -0.000357769 -0.000373932 -0.00103789 0.000332726 -0.000787736 0.000588121 -4.85066e-05 
0.00022615 0.000384706 -0.000139264 0.000358827 -5.85322e-05 -0.00024916 0.00053865 -0.00118476 0.00155931 -0.00175977 
0.00268733 -0.00271407 0.00185149 -0.00285212 0.00306399 1.43582e-05 -0.00306117 0.00262672 5.74353e-05 -0.00363424 
0.00829878 -0.00808146 0.001103 0.00544302 -0.00238985 -0.00281838 0.00269225 0.00078794 -0.00243007 0.000367577 
0.00127684 -0.000630163 -0.000193288 0.000376331 -0.000251663 -1.52925e-05 0.000199815 1.29999e-05 -0.000197457 -0.000412585 
-0.000650948 0.00048718 0.00114616 -0.00104093 -0.00122088 -0.0011724 -0.000129284 0.00249605 0.00371336 0.00542131 
0.00563066 0.00486397 0.00389349 0.00222214 0.00163633 0.000803698 0.000759375 0.000413671 -0.000114213 -0.00212225 
-0.00408812 -0.00660629 -0.00637209 -0.00362174 0.00352752 0.00949847 0.0111312 0.00556917 -0.00296368 -0.00737219 
-0.00379045 0.00301105 0.00374091 -0.000576118 -0.00266479 -0.000283178 0.00158724 -0.000441997 -0.000858208 0.000466695 
0.000713897 -0.000144136 -0.000385779 -9.06274e-05 2.68771e-05 0.000149207 0.000469231 0.000218463 -0.000212174 -0.000575338 
-0.000234261 -0.000695891 0.00020011 7.05271e-05 0.000551014 0.000427874 0.000741361 -0.000295019 0.000949933 -0.0013133 
0.00106717 -0.00150558 0.000882925 -0.00111834 0.000832365 -0.00079249 0.00108624 -0.00109535 0.000979589 -0.00163496 
0.0014537 -8.52457e-05 0.000666126 -0.00110898 -0.00203616 0.00557119 -0.00517527 0.00192311 0.00257514 -0.00813533 
0.0079218 0.000366045 -0.00627241 0.00193403 0.00319184 -0.00231471 -0.00182723 0.00247817 0.000536246 -0.00152639 
0.000300941 0.000526837 -0.00058383 6.25866e-05 0.000312116 -7.89583e-05 4.34046e-06 -6.16533e-06 -9.40286e-05 -0.000283658 
-0.000199527 0.00187243 -0.000243753 -0.00095947 0.000412587 0.000396356 0.00259577 0.00142531 -0.000276683 -0.00258084 
-0.005487 -0.00662867 -0.00815659 -0.0074514 -0.00749633 -0.00603717 -0.00587329 -0.00415985 -0.00328291 -0.000884873 
0.00148574 0.00417384 0.00448867 0.0020227 -0.0038259 -0.010026 -0.0132273 -0.00836026 0.000551239 0.00795756 
0.00661172 4.77614e-05 -0.00463527 -0.00227256 0.00265871 0.00145435 -0.00077311 -0.00112529 0.00125098 0.000503368 
-0.00106031 0.000111286 8.09175e-05 5.60762e-05 0.000362541 3.22456e-05 -0.000619117 4.65579e-05 -0.00067149 0.000478869 
0.000672625 3.32477e-05 0.000894819 -0.000608984 0.000117675 -0.000702845 -0.000337829 -0.000547656 0.000254161 -0.000658744 
0.00129134 -0.00110307 0.00196821 -0.00178657 0.00201652 -0.00203193 0.00185598 -0.00116271 0.00120542 -0.000721938 
-0.00148184 0.00142036 -0.000580919 0.00358593 -0.00746066 0.00710308 -0.00356943 -0.00159332 0.00810045 -0.00747533 
-0.00178676 0.00657613 -0.00108832 -0.00403633 0.00194074 0.00272722 -0.00191692 -0.00148671 0.00149267 0.000119344 
-0.000885451 0.000481437 0.000352682 -0.000427239 5.91458e-06 0.000101407 3.20732e-05 6.92005e-05 -0.000150205 -0.000101802 
0.000923374 0.000662914 -0.00170759 0.000457496 9.75484e-05 0.000235342 0.000189046 -0.00271168 -0.00235302 -0.00266417 
0.000241886 0.0029556 0.00582903 0.00840242 0.00931754 0.0103414 0.00927971 0.00907647 0.006677 0.00481463 
0.00149801 -0.000471849 -0.0020855 0.00014402 0.00487617 0.0113405 0.0139584 0.0110742 0.0016947 -0.00757161 
-0.0096335 -0.0033203 0.00386884 0.00402962 -0.000169893 -0.0028528 -4.93193e-05 0.00134633 -0.000311834 -0.000867214 
2.27953e-05 0.000530761 -0.000153078 0.000170104 -0.000541615 3.55999e-05 -0.000161129 0.000529948 0.000154431 0.000633833 
-0.000723537 -0.000318586 -0.000388005 -0.000495738 0.00056389 -0.000140055 0.000873542 -4.42549e-05 0.00040948 -0.000121434 
-7.80761e-05 -0.000410347 0.000195234 -0.000710778 0.00065153 -0.0010423 0.000193576 -0.000344395 0.000273167 0.00229907 
-0.00218564 0.00055023 -0.00303019 0.00713892 -0.00714265 0.00394199 0.00158409 -0.00881624 0.00752799 0.00224686 
-0.00595408 -0.000532276 0.00522803 -0.00117878 -0.00344888 0.000999673 0.00214289 -0.001194 -0.000693466 0.0011125 
-7.0005e-05 -0.0007367 0.000289183 0.00019004 -0.000152581 0.000116085 -8.5053e-06 -1.38116e-05 -7.14915e-05 -0.000226335 
0.000171145 -0.001599 -9.62322e-05 0.00135617 -0.000496458 0.000369478 -0.00118599 -0.000307993 0.00162836 0.0028219 
0.00471201 0.00286365 0.00145335 -0.00259674 -0.00492205 -0.00807351 -0.00896513 -0.00961104 -0.00834927 -0.00697626 
-0.00403681 -0.00180388 -0.000623247 -0.00223101 -0.00610282 -0.0117223 -0.0149819 -0.0123839 -0.00307926 0.00704993 
0.0117277 0.00740139 -0.00166758 -0.00527765 -0.00235832 0.00239483 0.00140797 -0.000988666 -0.000591986 0.000759296 
0.000402976 -0.000214514 -8.9083e-05 8.11885e-05 -0.000258095 0.000828583 -0.000196372 2.47477e-05 -0.00021071 -0.00044021 
-0.000669072 0.00116779 -0.000453523 0.00114645 -0.000301193 -9.87777e-05 -0.000162379 -0.000408356 -0.000104378 0.00010789 
-0.000380105 0.000698101 -0.000905891 0.00164134 -0.00121437 0.00278857 -0.00246748 0.00210085 -0.00459667 0.00401498 
-0.00126649 0.0026823 -0.00694583 0.00760189 -0.00508705 -0.000785978 0.00877913 -0.00717564 -0.00273852 0.0055046 
0.00194274 -0.00539409 -0.000720883 0.00421753 -0.000186699 -0.00237561 0.000615131 0.00140196 -0.00107191 -0.000574192 
0.000802777 6.59844e-05 -0.000377924 0.000217465 -5.66659e-05 -9.1336e-05 0.000151589 2.65231e-05 -9.09122e-05 -0.000445371 
-0.00133775 -0.000143748 0.00259052 0.000146482 -0.000596567 -0.000333413 -0.000850082 0.00193321 0.000570565 0.000369136 
-0.00261787 -0.00495032 -0.00573168 -0.00590658 -0.00276189 -0.00125258 0.00276357 0.00343052 0.00553127 0.00376742 
0.00368953 0.00147865 0.001447 0.00234628 0.00666362 0.0113694 0.0143827 0.0120911 0.00378996 -0.00738895 
-0.0141812 -0.0105299 -0.00220011 0.00595796 0.00409262 -4.71376e-05 -0.00217087 -0.000358867 0.00126957 -0.000308428 
-0.000559543 0.000141114 -0.000182449 -0.000203171 0.000752784 -0.000763175 -0.000461049 0.000663821 -0.000773936 0.000721437 
0.000462768 0.00041416 -0.00110129 0.000821836 -0.00182228 0.00130994 -0.00110018 0.00132133 -0.000834053 0.00121319 
-0.000987352 0.00141855 -0.00205446 0.00161562 -0.00370137 0.00338393 -0.00302148 0.00545669 -0.00514133 0.00171914 
-0.00234095 0.00739504 -0.00920754 0.00775931 -0.00152417 -0.00758483 0.00616301 0.00390459 -0.00571813 -0.0025127 
0.00401315 0.00324605 -0.00450909 -0.00083811 0.00262967 7.62939e-05 -0.00195133 0.000492897 0.00123323 -0.000541703 
-0.000470494 0.000407549 -0.000113276 -0.000158325 0.000250225 -4.65455e-05 -5.40884e-05 7.23186e-05 4.47684e-06 -0.000260542 
-0.000658266 0.00279495 0.00111343 -0.0021716 -0.000574608 -0.000975476 0.000926952 0.00128966 -0.00152432 -0.000956744 
-0.0025219 0.00113881 0.00322613 0.00691028 0.00861262 0.00842835 0.0078627 0.00544059 0.00458695 0.00260743 
0.00291087 0.00251762 0.00171216 -0.000444134 -0.00449754 -0.00889865 -0.0123485 -0.0101531 -0.00217065 0.00878036 
0.0159175 0.0149653 0.00470971 -0.00415183 -0.0068389 -0.00224284 0.00183484 0.000857756 -0.000440178 -0.000181713 
0.00021326 -0.000404413 0.000863177 -0.000282638 2.76473e-05 -0.000548538 0.00112529 -0.000146233 -0.000566676 0.00127732 