# vtk DataFile Version 2.0
Titre
ASCII
DATASET STRUCTURED_POINTS
DIMENSIONS 100 100 1
ORIGIN 0.0 0.0 0.0
SPACING 0.1 0.1 0.0
POINT_DATA 10000 
SCALARS rho float
LOOKUP_TABLE default
-0.0016378 0.00220941 0.00270019 -7.82365e-06 0.00155674 0.00250674 -0.00422881 -0.00570356 -0.00167986 0.0051475 
0.00367672 -0.00117239 -0.00307341 0.000375959 0.00211405 -0.000108984 -0.00308532 -0.00182831 0.00219237 0.00363932 
0.000796871 -0.0024744 -0.00240358 -0.000193579 0.00147129 0.00160063 0.000337471 -0.00150245 -0.0022332 -0.00102511 
0.000796638 0.00207409 0.0022228 0.00119013 -0.000394815 -0.001403 -0.00156923 -0.00100875 -5.45215e-05 0.000681658 
0.000949966 0.000827036 0.00040103 -3.17114e-05 -0.000320168 -0.000443241 -0.000400179 -0.000288771 -0.000184214 -0.000109995 
-9.48034e-05 -0.000112603 -0.00014239 -0.00017037 -0.000168544 -0.000163302 -0.000112847 -8.06549e-05 -2.77813e-05 2.23323e-05 
3.02492e-05 7.16349e-05 4.25525e-05 6.02849e-05 2.41614e-05 2.11069e-05 -3.59806e-06 -2.2329e-05 -3.67152e-07 -3.84121e-05 
3.25446e-05 -9.44288e-06 6.11136e-05 3.68787e-05 5.61444e-05 3.37952e-05 7.11598e-06 -3.41659e-05 -6.49565e-05 -9.96949e-05 
-8.00609e-05 -5.76004e-05 5.20028e-05 0.000141004 0.000243348 0.000216541 0.000108247 -0.00015483 -0.000420553 -0.000642288 
-0.000562921 -0.000185903 0.000249462 0.000215932 0.000649904 0.000930857 1.35745e-05 -0.000235295 -0.000524714 -0.00605998 
-0.00090798 0.00135554 0.000610626 -0.00213937 1.85366e-05 -0.00433682 -0.00179899 0.00201999 0.00497634 0.00331001 
-0.0015603 -0.00328277 -0.00130278 0.00201458 0.00134081 -0.000919211 -0.00211011 0.000762425 0.00194944 0.000545841 
-0.00165908 -0.000671082 0.00026654 -4.81667e-06 -0.000464824 0.000239846 8.03122e-05 -0.000109341 0.000365775 0.000744301 
0.00024474 2.89321e-05 -0.000177273 -0.000549491 -0.000494743 -0.000203964 -8.72319e-05 0.000114722 0.000240976 0.000152024 
0.00013906 0.000115367 2.21233e-05 5.81003e-05 4.61263e-05 1.132e-05 6.63454e-05 -1.79317e-06 1.1235e-05 6.16642e-06 
-5.40812e-05 -8.57062e-06 -7.26322e-05 -6.22466e-05 -6.17025e-05 -0.000110769 -6.42683e-05 -0.000110466 -7.22089e-05 -7.69194e-05 
-5.12223e-05 -2.60083e-05 -2.40247e-05 3.31297e-05 -1.30692e-05 5.71008e-05 -1.7248e-05 1.85285e-05 -3.89934e-05 -5.16101e-05 
-6.41583e-05 -8.92075e-05 -5.70876e-05 -5.88962e-05 9.6017e-06 2.29892e-05 9.79073e-05 9.76694e-05 0.000135066 8.16042e-05 
4.92882e-05 -6.89183e-05 -0.000148334 -0.000238484 -0.000236192 -0.000181356 -5.37419e-05 0.000118973 0.000198905 0.000151914 
-0.000281363 -0.000353692 -4.22547e-05 2.63525e-05 -0.000729882 0.00124409 0.00176391 0.000825061 0.00585974 0.00136173 
-0.00176756 0.00391176 -0.000895063 0.00142334 -0.000732083 -0.00192245 0.000744473 -0.000515889 -0.000468243 -0.0025136 
-0.00129416 0.000625041 0.0029994 0.000895944 -0.0015421 -0.00246896 0.00081091 0.00226803 0.000318317 -0.00176468 
-0.000573557 0.000796974 -0.000132505 -0.000582159 0.0005748 0.000544539 -0.000544622 -0.000340346 0.000226063 -0.000238949 
-0.000142902 0.000351943 0.000210913 0.000127088 0.000419149 0.000200206 6.32881e-05 0.000127117 -7.40076e-05 -0.000148504 
-7.20805e-05 -0.000201728 -0.000157859 -0.000119906 -0.000162276 -7.72115e-05 -6.50161e-05 -5.64037e-05 1.79752e-05 4.49795e-06 
4.76756e-05 7.33768e-05 5.48535e-05 0.000107595 5.65158e-05 9.73999e-05 6.24081e-05 3.95778e-05 7.13724e-05 -3.13104e-05 
4.12291e-05 -5.356e-05 -2.0707e-05 -3.23265e-05 -5.24438e-05 1.23729e-05 -3.70413e-05 6.65057e-05 8.78938e-06 8.60599e-05 
3.28685e-05 6.57618e-05 -7.3568e-06 1.09881e-05 -8.24619e-05 -5.76018e-05 -0.000143799 -0.000107731 -0.000141398 -6.64012e-05 
-3.51467e-06 0.000153875 0.000283746 0.000438758 0.000446564 0.000336394 -8.98616e-05 -0.000546242 -0.000958432 -0.000770483 
-0.000628026 -0.000601177 0.000231478 0.00153575 -8.42948e-05 -0.000816601 0.0003805 -0.003903 -0.000946897 0.00131263 
0.00226331 0.00266464 -0.00127125 8.77946e-05 -0.00390506 -0.000924473 -0.000282638 0.00207692 0.00297846 0.00319755 
0.00109933 -5.72872e-05 -0.00212284 -0.00201065 -0.000311684 0.00172478 0.00197501 -0.00089451 -0.00168475 -8.33755e-05 
0.00143109 -0.000212886 -0.000850241 0.000290631 0.000436621 -0.000970269 -0.000317634 0.000844167 0.000433135 -2.12042e-05 
0.000533161 4.66463e-05 -0.000465454 -0.000174701 -0.00022386 -0.000448206 -6.91524e-05 -3.61921e-05 -6.71084e-05 0.000199908 
0.000179741 0.000131774 0.000254017 0.000160489 0.000119505 0.000180848 1.40121e-05 4.82561e-05 8.20449e-06 -0.000109178 
-2.28209e-05 -0.000147746 -0.000111537 -8.59264e-05 -0.000157899 -2.48745e-05 -9.73439e-05 -2.15911e-07 1.58947e-05 2.06216e-05 
0.000102399 2.85801e-05 0.000130669 1.43143e-05 7.41993e-05 -1.84364e-06 -3.1137e-05 -3.74222e-05 -8.36058e-05 -5.52574e-05 
-8.07727e-05 -4.1078e-06 -3.23489e-05 8.13947e-05 3.28823e-05 0.000155072 7.41869e-05 0.000156854 2.01934e-05 8.76734e-06 
-0.00021339 -0.000300104 -0.000498546 -0.000450106 -0.000319338 0.000188632 0.000606621 0.00084157 0.000308345 -0.00019097 
-0.000322238 -0.00118865 -0.00185303 0.000914888 0.00199661 0.00165384 0.00514839 0.00227157 0.00013813 0.00162137 
-0.000428389 -0.000325045 -0.00154212 -0.0015984 -0.00135176 -0.00015429 0.00116861 -4.58407e-05 -0.000547353 -0.00394648 
-0.00348899 -0.00106774 0.00164676 0.00338273 0.00112811 -0.000763694 -0.00205043 -0.000479363 0.00138991 0.00114954 
-0.000764696 -0.00112681 0.000416842 0.000435969 -0.000752587 -2.90536e-05 0.00121824 0.000163782 -0.000818729 -0.000119632 
-9.69167e-05 -0.000560287 0.000182659 0.000520954 0.000132484 0.00039755 0.000404701 -1.43026e-05 3.23253e-05 -1.11557e-05 
-0.000331331 -0.000190434 -0.000238095 -0.000301104 -0.000115557 -0.000159721 -9.88943e-05 3.73601e-05 -6.27729e-06 0.000104315 
0.000136362 9.49968e-05 0.000199721 9.02719e-05 0.000132377 9.46115e-05 -9.54787e-06 5.79459e-05 -0.000116024 -3.89943e-05 
-0.000119376 -0.000124753 -6.00611e-05 -0.000113395 2.54939e-06 -3.10919e-05 6.97605e-05 1.21566e-05 9.33285e-05 6.51e-06 
4.1562e-05 -3.64462e-05 -3.85049e-05 -6.36012e-05 -9.00123e-05 -5.83216e-05 -6.71627e-05 -1.05258e-05 3.18944e-05 0.000126254 
0.000228759 0.000328688 0.000367903 0.000250266 -0.000107853 -0.000469861 -0.000610324 -0.000260334 -4.80591e-05 -0.000482997 
0.000329674 0.000854811 -0.00188143 -0.0016853 -0.000865602 -0.00314265 0.000152408 0.00226426 0.000285407 -0.000180057 
0.000953332 0.00320328 -0.00198973 0.00153456 -0.00249748 0.00145143 8.17459e-05 0.00196126 0.00209658 0.00153728 
0.00401432 0.00239437 0.000817473 -0.00310405 -0.00349221 -0.000440207 0.00244097 0.00224089 -0.000559389 -0.00190949 
-0.000459644 0.00100329 0.000265293 -0.000874687 0.000138259 0.00101701 -0.000397179 -0.00112949 0.000258166 0.000735858 
-4.40981e-05 0.000391895 0.000487753 -0.000388914 -0.000448859 -0.000127856 -0.000558145 -0.000271896 8.06677e-05 -4.70572e-05 
0.000184087 0.00034348 0.000234407 0.000298562 0.000286381 7.52604e-05 0.000115092 1.0053e-05 -0.000135383 -5.63049e-05 
-0.000203682 -0.000171078 -0.000118553 -0.000196352 -3.61764e-05 -8.59742e-05 1.1333e-05 6.78114e-05 5.16647e-05 0.000158863 
7.03085e-05 0.000148835 4.93996e-05 6.82299e-05 -1.07193e-05 -2.46469e-05 -4.01808e-05 -7.29268e-05 -2.89379e-06 -6.61571e-05 
6.58021e-05 -2.46057e-05 8.38044e-05 -6.02023e-06 6.89558e-05 -2.2364e-05 6.31828e-05 -1.39487e-05 4.83271e-05 -7.57295e-05 
-9.35779e-05 -0.000238513 -0.000177602 1.70191e-05 0.000281971 0.0002934 3.23632e-05 -9.93734e-05 0.000509861 -0.000665497 
-0.0013539 0.00165431 0.000713318 0.000847196 0.00324328 0.000931973 -0.000741358 0.00183342 0.00221344 0.00189326 
0.00312032 -0.00195862 -0.00127083 -0.00165017 -0.00239361 0.00124889 -0.000928319 0.00142288 -0.00299554 -0.0028332 
-0.00362733 -0.00317208 -0.000959929 0.000985215 0.00395128 0.0032442 -0.000285215 -0.00312617 -0.00175366 0.0014083 
0.00171497 -0.000709738 -0.00119462 0.000566303 0.00103623 -0.000796762 -0.000896017 0.000947022 0.000882954 -0.000576596 
-0.00041957 6.89816e-05 -0.00067342 -0.00027058 0.000578918 0.000257665 0.000277499 0.000581357 0.000126226 -0.00011152 
9.16296e-06 -0.000354674 -0.000327432 -0.000221168 -0.000366559 -0.000150856 -5.10384e-05 -3.37791e-05 0.000155347 0.000155081 
0.000179319 0.000256478 0.000130826 0.000159034 8.59165e-05 -3.4476e-05 3.09584e-07 -0.000145113 -9.99446e-05 -0.000138092 
-0.000110249 -7.23307e-05 -4.20969e-05 5.74122e-05 9.48626e-06 0.000152744 3.52271e-05 0.000114395 3.0531e-05 2.17401e-05 
-8.17684e-06 -2.15748e-05 -5.08271e-06 -2.69675e-05 1.30985e-05 -5.45357e-05 -5.84445e-05 -0.000132953 -8.50845e-05 -3.97123e-05 
8.44891e-05 0.000167893 3.26898e-05 -2.11937e-05 5.53908e-05 0.000264557 0.000137955 -0.000832025 0.000289476 0.000855859 
-0.00270636 -0.000604825 -0.00121759 -0.00280457 -0.000422871 0.00170679 -0.000339277 -0.000388874 0.000686826 0.000465926 
-0.0025982 -0.00168029 -0.00133371 -0.00168851 0.000333936 0.000731164 0.00135906 0.001518 0.000122846 0.00294641 
0.00340926 0.00460105 0.00251355 -0.000611179 -0.00297259 -0.00385599 -0.00187661 0.00176389 0.00299799 0.00064011 
-0.0023798 -0.00111983 0.00150691 0.000940652 -0.00141957 -0.000734218 0.00139997 0.000505259 -0.00132588 -0.000407089 
0.000751988 3.0032e-06 0.000158542 0.000838838 -3.61775e-05 -0.000629125 -9.15521e-05 -0.000472112 -0.000516612 9.23993e-05 
7.08449e-06 0.000179606 0.000437775 0.00026416 0.000269228 0.000262651 5.49341e-05 -2.10617e-05 -0.000108069 -0.00023146 
-0.000219686 -0.000236425 -0.000213555 -0.000122163 -8.55882e-05 4.58556e-05 5.97879e-05 0.000151081 0.000159485 9.22965e-05 
0.000173108 -3.77296e-05 3.54167e-05 -0.000106893 -0.000113179 -0.00011462 -0.000130498 -4.81026e-05 -7.45814e-05 4.05275e-05 
-3.03873e-05 5.14843e-05 -4.31678e-05 4.37701e-05 -4.09261e-05 0.000141919 8.04621e-05 0.000226954 4.53809e-05 9.40289e-05 
-0.000167818 3.9436e-06 -0.000160289 -0.00034623 -0.000491927 -0.000189611 0.00103971 -0.000225701 -0.000957589 0.00291391 
-0.00062541 0.000711303 0.00220416 0.000558029 -0.000916819 0.00122892 0.00149062 0.00012947 0.000880725 0.000453024 
0.00205055 0.00342836 -0.000381832 0.00219755 -0.000200257 0.00185819 0.000475741 -0.00053468 -0.00197255 -0.00192747 
-0.00319595 -0.00348504 -0.00363971 -0.00124439 0.0028795 0.00470081 0.00371559 -0.000129762 -0.00318172 -0.00247924 
0.000712422 0.00262669 -2.46324e-05 -0.00202938 -0.00022707 0.0019995 9.17184e-05 -0.00170424 0.000149258 0.00143335 
-0.000157446 -0.00062167 0.000294027 -0.000500758 -0.000856485 0.000429791 0.000433794 0.000102964 0.000629977 0.000311702 
-0.000206378 2.22121e-05 -0.000340201 -0.000505184 -0.000158221 -0.000317609 -0.000117415 0.000110317 2.87407e-05 0.00028771 
0.00026411 0.000186086 0.00029143 7.70659e-05 6.03545e-05 2.74691e-06 -0.000166967 -6.70366e-05 -0.000205482 -8.88306e-05 
-6.85796e-05 -3.87322e-05 0.00012227 2.54228e-05 0.000204736 3.4323e-05 0.000132812 -3.58589e-05 2.94555e-05 -9.45643e-05 
-1.23622e-05 -3.04515e-05 -2.06329e-05 4.74737e-05 -9.72791e-05 -4.2394e-05 -0.000199091 -3.50871e-05 -0.000142394 7.75661e-05 
-1.9539e-05 0.000154552 0.000627847 0.000594176 0.00031525 -0.00114511 0.000260853 0.000987011 -0.00356194 0.00112699 
-0.0011734 -0.00255068 -0.000925466 0.000716905 -0.000630893 -0.000377644 0.00146054 0.000789726 -0.00037334 0.00170301 
0.00148662 -0.00498863 -0.00307572 -0.0037261 -0.00310217 -4.57235e-05 -0.00173533 -0.0001161 -0.000596032 0.00217957 
0.00256391 0.00409112 0.0030171 0.00199628 -0.000781581 -0.00469664 -0.0052949 -0.00280487 0.00226017 0.00384442 
0.00125392 -0.00227654 -0.00221633 0.00132673 0.00207035 -0.000779348 -0.00207827 0.00076096 0.0015678 -0.000820497 
-0.00119076 0.000629176 0.000208685 -0.000317762 0.000890243 0.000588819 -0.000654167 -0.000205268 -0.000194781 -0.000769418 
3.55996e-05 0.000172055 1.95934e-05 0.000553589 0.000369612 0.000199578 0.000270222 -8.68825e-05 -0.000136307 -0.000156005 
-0.000356507 -0.000207045 -0.000205582 -0.000171255 6.23288e-05 -3.21485e-05 0.000157772 0.000166763 3.70579e-05 0.000189624 
-5.83899e-05 1.00303e-05 -0.00012346 -8.82607e-05 -0.000104329 -7.4306e-05 7.47358e-05 -2.5799e-05 0.000224706 1.66518e-06 
0.000182924 -3.23633e-05 5.98458e-05 -5.29789e-05 7.61981e-05 7.10104e-06 6.97828e-05 3.79428e-05 0.000156822 7.94213e-06 
9.32973e-05 -0.000828657 -0.000503798 -0.000378197 0.00115601 -0.000339323 -0.00114788 0.00418375 -0.00184385 0.00118563 
0.00225372 0.000483676 -0.000921004 0.00062811 0.000809875 -0.000664421 -0.000172505 0.00173029 0.000641579 -0.00133712 
-0.00307877 -0.000976615 0.00130938 0.00128814 0.00437054 0.00378817 0.00250367 0.00164762 9.60298e-05 0.00039629 
-0.00194884 -0.00216912 -0.00406631 -0.00160078 0.000358852 0.00373663 0.00599202 0.00475269 0.00075243 -0.00418324 
-0.00377547 0.000388494 0.00338971 0.00115789 -0.0024529 -0.00154186 0.00178762 0.00155482 -0.00147184 -0.00101652 
0.00133966 0.00054584 -0.00070281 0.00024264 8.47154e-05 -0.00122328 -7.40293e-05 0.000627721 1.04882e-06 0.000476541 
0.000619044 -0.000216182 -0.000146914 -0.000141942 -0.000633716 -0.000269053 -0.000177715 -0.000222217 0.000248941 0.000180928 
0.000206539 0.000387028 0.000119464 0.000123552 6.26064e-05 -0.000158348 -8.01583e-05 -0.000175716 -8.73914e-05 -7.6859e-05 
6.60511e-06 0.000151798 4.14817e-06 0.000243499 -4.8841e-05 8.30829e-05 -0.000143857 -0.000118747 -0.000188969 -0.00016425 
-0.000104348 -6.81041e-05 5.67993e-05 -1.48736e-05 0.000115686 -4.96913e-06 5.51356e-05 -0.000339043 -8.10484e-05 -0.000346381 
0.000817971 0.000402355 0.000206398 -0.000931409 0.000378071 0.00153046 -0.00480405 0.00251183 -0.00135003 -0.00238458 
-0.000498987 0.0006734 -0.000957959 -0.000936711 0.000952298 0.00144699 -0.00036202 -0.000437249 0.00127831 0.000747077 
0.00156264 0.00297904 -0.000296434 8.72708e-05 -0.00116064 -0.00241733 -0.00323459 -0.00360087 -0.00209261 -0.000808296 
0.000379341 0.00166868 0.00158015 0.00275152 -0.000372971 -0.00297305 -0.00641742 -0.00647628 -0.00310067 0.0018752 
0.00532983 0.00266638 -0.00216128 -0.00369894 0.000354726 0.00299624 0.00055033 -0.00244086 -0.000510302 0.00175636 
0.000166023 -0.00144906 0.000228069 0.000410459 -0.000650381 0.000510742 0.00115703 -0.000331564 -0.000476732 8.98062e-05 
-0.000777852 -0.000323644 0.000332757 -3.99464e-06 0.000459541 0.000498349 0.000155138 0.000272722 -2.52843e-05 -0.000248535 
-0.000199717 -0.000322354 -0.00020906 -9.01385e-05 -8.46301e-05 0.000162971 0.000116872 0.000113898 0.000195971 -3.07104e-05 
1.78416e-05 -0.000136454 -0.000125784 -7.90288e-05 -0.000124022 0.000132267 3.26894e-07 0.000303953 6.26577e-05 0.000295061 
-1.96823e-05 8.15601e-05 -0.000178827 -0.000100072 -0.000230727 -6.65682e-05 0.000307001 0.000259385 0.000412084 -0.000572901 
-0.000370869 0.000293333 0.00054132 -0.000329801 -0.00199614 0.00526576 -0.00310683 0.00133177 0.00255247 0.000212343 
-0.000923057 0.000818855 0.000885541 -0.000760433 -0.00135117 0.000609459 0.00168071 0.000355349 -0.000475776 0.000853148 
0.000850813 -0.00415936 -0.00388652 -0.00239008 -0.00140887 0.0011666 0.000878682 0.00237083 0.00267285 0.00215059 
0.00146236 -0.000490841 -0.00113709 -0.000533618 -0.000230705 0.00312111 0.00557901 0.00792405 0.00559639 0.000376725 
-0.00454157 -0.00541796 -0.000704833 0.0036422 0.00297224 -0.00188424 -0.0028014 0.000752603 0.00234488 -0.000610906 
-0.00160149 0.000845953 0.000937172 -0.000705398 7.45244e-05 0.000804054 -0.00118295 -0.000801319 0.000636079 6.28466e-05 
0.000227006 0.000781762 1.42557e-05 -0.000214688 -8.18786e-05 -0.000577922 -0.000341477 -0.000125263 -0.000202822 0.000186323 
0.00023074 0.000234692 0.00028893 0.000107387 6.35214e-05 -5.75033e-05 -0.000182939 -5.6438e-05 -0.000193517 -3.25675e-05 
8.37876e-05 1.81522e-05 0.000190859 3.45038e-05 9.08154e-05 -7.77119e-05 -0.000112166 -0.000171544 -0.000196353 -0.000110307 
-3.981e-05 0.000187852 0.000210627 0.000339653 0.000207939 -0.00025371 -0.000297581 -0.000385603 0.000355577 0.000310332 
-0.0009085 -0.000196759 0.000388109 0.00229054 -0.0052944 0.00352915 -0.000999673 -0.00287999 3.74682e-07 0.00109635 
-0.000958707 -0.00118967 0.000260911 0.00127815 6.70764e-05 -0.000893124 0.000198108 0.00112825 0.000362715 -0.000817783 
-0.00256212 -0.00202241 0.00218719 0.00292711 0.00500636 0.00351139 0.000869263 0.000427299 -0.00139409 -0.00116332 
-0.00132579 -0.00134643 6.11476e-05 0.000296562 -0.000981992 -0.00263643 -0.00616052 -0.00756859 -0.00783997 -0.00315605 
0.00284871 0.00649544 0.00423101 -0.00162032 -0.00442376 -0.0013339 0.00294381 0.00189568 -0.00195147 -0.00148455 
0.00145712 0.000930952 -0.00149431 -0.000154347 0.000860943 -0.000765601 -0.000350589 0.00144633 0.000379061 -0.000655347 
0.000213092 -0.000557807 -0.000718624 0.000352825 -6.38609e-05 0.000245267 0.000678304 4.21284e-05 0.000194686 5.39167e-05 
-0.000371146 -9.02814e-05 -0.000283443 -0.000297252 7.71441e-05 -3.87053e-05 7.00776e-05 0.000179506 6.3015e-05 8.35842e-05 
-9.51698e-05 -6.73494e-06 -0.000137103 -6.33292e-05 9.64287e-06 3.63162e-06 0.000276357 2.33309e-05 0.000359542 -0.000116406 
5.39563e-05 -0.000475632 -0.000154966 -0.000524292 0.000345285 5.73491e-05 0.000357062 -0.000375981 -0.000169556 0.00144165 
5.35551e-05 -0.00060531 -0.00217985 0.00493193 -0.00374193 0.00047359 0.00318788 -2.74592e-05 -0.00147626 0.00105341 
0.00119215 -1.38784e-05 -0.0012854 -0.000402635 0.000750208 0.000379819 -0.000162963 0.000441321 0.000697338 -8.04718e-06 
-0.000104045 0.00301457 0.00128811 -0.000187736 -0.00152193 -0.00501546 -0.00490324 -0.00378012 -0.00255349 -0.000379349 
-0.000212295 2.92345e-05 0.000718158 0.000529044 0.00110243 0.00302763 0.00531932 0.00851088 0.00816198 0.00581836 
-0.000601775 -0.00594553 -0.00700676 -0.00197641 0.00375213 0.00406745 -0.000607763 -0.00329525 -0.000369847 0.00242111 
0.00030852 -0.00187699 0.000193629 0.00136942 -0.000518831 -0.000559672 0.00119642 -0.000339097 -0.00143022 0.000185598 
0.000180253 -8.80175e-05 0.000832448 0.000321692 -0.000289266 0.000101759 -0.000421054 -0.00048253 -3.2377e-06 -0.000102341 
0.000146461 0.000275541 0.000217283 0.000260847 6.65879e-05 -9.80329e-06 2.52943e-05 -0.000234693 4.64623e-07 -4.4232e-05 
-7.58259e-06 0.000156614 -6.13072e-05 0.000199665 -0.000120624 -0.00011478 -0.000148856 -0.000296322 -2.36512e-05 -0.000128094 
0.000452408 4.13691e-05 0.000557765 -0.000319604 9.12612e-05 -6.47312e-05 0.000393976 0.000238669 -0.00199309 0.000113159 
0.000816534 0.00177957 -0.00442092 0.00396331 4.23361e-05 -0.00314598 -0.000217272 0.00210887 -0.00121887 -0.00119231 
-0.000295224 0.00103422 0.000435303 -0.00060592 -0.000197572 0.000570578 0.000167824 -3.49906e-05 0.000389519 0.000693284 
0.00131389 -0.000962837 -0.00363455 -0.00191253 -0.00107825 0.000768001 0.0038876 0.0050777 0.00559487 0.00493541 
0.00296368 0.00180234 0.00137966 0.000106869 -0.000901301 -0.00265428 -0.00519558 -0.00730965 -0.00926528 -0.00676387 
-0.0019757 0.00490365 0.00812525 0.0057234 -0.000863838 -0.0050793 -0.00254579 0.00222929 0.00275632 -0.00124127 
-0.00202577 0.000877624 0.00152998 -0.00111012 -0.000765927 0.00103864 -0.000312676 -0.000973234 0.000947635 0.000998706 
-0.000344748 0.000183588 -0.000151254 -0.000932832 6.76694e-05 0.000121076 -7.43997e-05 0.000564413 0.000200946 -5.19219e-06 
6.70268e-05 -0.000354532 -0.000261277 -0.000176406 -0.000189235 -4.53448e-05 8.31833e-05 4.54017e-05 0.000181438 -0.000108637 
7.46903e-05 -7.53401e-05 -8.74139e-05 -8.80868e-06 6.1405e-05 0.000218823 0.00012502 0.000241477 9.38843e-06 -0.000107253 
-0.000157515 -0.000103216 3.5459e-05 0.00017061 -0.000637567 -0.000135792 -0.000684705 0.00265179 -0.000472501 -0.000921262 
-0.00112262 0.00398416 -0.00414449 -0.000339739 0.00281448 0.000683625 -0.00278719 0.00129539 0.00131803 0.000387582 
-0.000825339 -0.000598358 0.000516123 0.000110046 -0.000597572 -7.9271e-06 0.000766339 0.00037482 -0.000145964 -0.000101019 
-0.000770635 -0.0031361 -0.000127948 0.00306132 0.00357645 0.00304889 0.000631335 -0.00242041 -0.00457692 -0.00593826 
-0.00643245 -0.00537991 -0.00360454 -0.00259986 -0.000726108 0.00121004 0.00382546 0.00676643 0.00785952 0.00783264 
0.0030671 -0.00298428 -0.00874247 -0.00851103 -0.00298313 0.00371143 0.00501032 0.000461616 -0.00319783 -0.00128053 
0.00216519 0.00109364 -0.00175493 -0.000485316 0.00140792 -0.000120445 -0.000954132 0.00104677 0.000486659 -0.0014489 
-0.000259093 0.000126832 -0.000468675 0.000665402 0.000586876 -0.000217496 0.000179444 -0.000282167 -0.000388579 2.74035e-05 
-0.000186011 0.000219173 0.00039956 0.000120264 0.000259249 0.000105571 -6.98629e-05 -8.94292e-05 -4.23607e-05 -0.000108195 
5.20051e-05 -0.000117649 0.000204867 -0.000180882 -9.60404e-06 -0.000191428 -4.96055e-05 -7.53681e-05 7.21366e-06 8.94501e-05 
-0.000302314 6.38811e-05 -0.000477351 0.00124209 -9.00061e-05 0.00103572 -0.00300511 0.000729944 0.00134574 -1.08626e-05 
-0.00334091 0.00403647 0.00060795 -0.00242795 -0.00100903 0.0033655 -0.00100464 -0.00159794 -0.000307543 0.000639398 
0.000719151 -0.000593352 -0.000323896 0.000621257 0.000317749 -0.000484723 -0.000308131 0.00057151 0.000501132 -0.000426801 
-0.00120874 0.000399358 0.00296026 0.00181426 -0.000854889 -0.00379326 -0.00475445 -0.00316723 -1.94986e-06 0.00317358 
0.00517446 0.00652934 0.00669176 0.00505525 0.00357736 0.0010364 -0.00150138 -0.00429025 -0.00693242 -0.00636732 
-0.00405043 0.00246147 0.00796585 0.010949 0.00666639 -0.00052844 -0.0057328 -0.00355213 0.00153414 0.00314264 
-0.000470874 -0.00225018 0.000203855 0.00169879 -0.000478926 -0.00120748 0.00102981 0.000240569 -0.0013455 0.00026644 
0.0012573 -5.93467e-05 0.000188578 0.000360508 -0.000846999 -0.000324719 0.000240707 -0.000210397 0.000317087 0.000308405 
-2.95298e-05 4.83073e-06 -0.000272957 -0.000251248 -0.000281178 -0.00015374 3.22199e-05 3.68198e-05 8.44597e-05 0.000128025 
0.000144695 1.22256e-05 7.647e-05 4.01278e-05 0.000134951 -0.000165012 7.3548e-05 -0.000125676 0.00011036 0.000402787 
0.000140577 0.000479819 -0.00135584 -4.2036e-05 -0.000800458 0.00269821 -0.000553824 -0.00244384 0.00172226 0.00229606 
-0.0035306 -0.000802865 0.00219404 0.00129252 -0.00379013 0.000556386 0.00189789 0.000390021 -0.00058805 -0.000742833 
0.000532516 0.000678702 -0.000601875 -0.000590097 0.000193224 0.000701643 3.80719e-05 -0.000289363 0.000298312 0.000250057 
0.000333367 0.00126516 -0.000241189 -0.00206436 -0.00247686 -0.00110334 0.00249537 0.00501316 0.0054549 0.00329721 
-0.000387193 -0.00318633 -0.00512286 -0.00632874 -0.00525886 -0.00397952 -0.00098849 0.00151694 0.00387683 0.00504198 
0.00271213 -0.00174241 -0.00841718 -0.0117346 -0.0104524 -0.00300675 0.00408679 0.00605682 0.00142037 -0.00299724 
-0.0019355 0.00161987 0.00167768 -0.00133736 -0.000872311 0.00110186 0.000324287 -0.00115741 0.000407304 0.00122413 
-0.000810496 -0.000817269 9.60979e-05 -0.000567926 0.000166056 0.000691177 -7.81548e-05 0.000213132 -4.90437e-05 -0.00044669 
5.69554e-05 -2.25573e-05 -7.35989e-06 0.000397371 0.000202766 0.000243601 7.2651e-05 -8.66981e-05 -6.14121e-05 -0.000227196 
-0.000287666 3.97524e-05 -0.000303285 0.000109753 -4.07593e-06 0.000310591 -6.05748e-05 7.92662e-05 -0.00065382 -4.80593e-05 
-0.00051305 0.00143828 0.000145748 0.000287933 -0.00214933 0.000280707 0.00379688 -0.00343635 -0.00119203 0.00316179 
0.000555554 -0.001825 -0.00193567 0.00436537 -0.000248846 -0.00185066 -0.00073427 0.000745162 0.00074819 -0.000321165 
-0.00101479 0.000352828 0.000742116 0.000126459 -0.000604715 -0.00024754 0.000544634 0.000161865 -3.96113e-05 0.000144196 
0.000415219 -0.00110912 -0.00185714 -0.000107877 0.00171022 0.00297883 0.00256742 -0.000712177 -0.00406931 -0.00636688 
-0.00636926 -0.00336272 -0.000231132 0.00231103 0.0042261 0.00384274 0.00334175 0.000568786 -0.00102752 -0.00239323 
-0.00109681 0.00266021 0.0083596 0.0130058 0.012903 0.00699803 -0.00157484 -0.00667845 -0.00467404 0.000752767 
0.00329589 0.000403076 -0.00204538 -0.000467819 0.00145829 6.69368e-05 -0.00126631 0.000678889 0.000788557 -0.00103911 
-0.000452877 0.000731311 0.000375146 0.000353721 0.000350532 -0.00040657 -0.000340492 -8.12077e-05 -0.000198617 0.000278546 
6.79024e-05 4.3119e-05 -1.63294e-05 -0.000168891 -0.000303556 -0.000204895 -4.70662e-05 -6.8219e-05 0.000227134 0.000356481 
3.52675e-05 0.00036116 -0.000136038 0.000152346 -0.000567806 0.000345674 -0.000372675 0.00102366 -0.000376745 0.00063258 
-0.0017646 2.18677e-05 0.000161426 0.00182207 -0.000268619 -0.00479429 0.00464273 0.000373315 -0.00338719 0.000233432 
0.00114062 0.00306083 -0.00507387 9.7558e-05 0.00156667 0.00107108 -0.000797461 -0.000953481 0.000158838 0.00108925 
8.62628e-05 -0.000832879 -0.000331649 0.000371238 0.000415362 -0.000314486 -3.87002e-05 0.000225525 3.22885e-05 -0.000147867 
-0.000522901 -0.00163651 0.000555289 0.00248746 0.00152232 -0.000735223 -0.00321171 -0.00409206 -0.00147979 0.00227938 
0.00579609 0.00817239 0.00693143 0.00466098 0.00172888 -0.000553932 -0.00102285 -0.00146961 9.93312e-05 6.66854e-05 
-0.000328056 -0.00402649 -0.00870177 -0.0137035 -0.0147238 -0.0102863 -0.00150294 0.00608753 0.0072545 0.0025035 
-0.00252662 -0.00225724 0.000574363 0.00171574 -0.000559819 -0.000879842 0.000629041 0.000517337 -0.000886311 -0.00028226 
0.00103331 1.73473e-05 -0.000566196 -3.17177e-05 -0.000738812 -0.000175575 0.000727513 5.90529e-05 0.000100523 0.00025984 
-0.000224326 1.71273e-05 -0.000137404 0.000257085 0.000119615 7.27191e-05 0.000178013 -6.83927e-05 -0.000280969 -0.000129753 
-0.00020845 1.88879e-05 -8.32045e-05 0.000421801 -0.000348105 0.000176317 -0.00100743 0.000444995 -0.000255137 0.00176384 
0.000143287 -0.000974595 -0.00128831 8.8697e-05 0.00559324 -0.0057562 0.000515202 0.00380916 -0.000919017 -0.000515344 
-0.0041738 0.00544125 0.000207569 -0.00157238 -0.00107415 0.000393493 0.00134902 -0.000139793 -0.00103598 -0.000572077 
0.000712754 0.000447976 -0.000290456 -0.000343967 0.000203736 0.000166642 -9.35515e-05 6.7974e-05 8.03205e-05 -0.000211556 
-0.000783745 -0.000147983 0.00185973 0.000874183 -0.0018107 -0.00262504 -0.00112922 0.00219319 0.00503375 0.00397166 
0.000463699 -0.00386976 -0.00812883 -0.00916406 -0.00878694 -0.00633981 -0.00406614 -0.00268668 -0.001255 -0.000836823 
0.00118529 0.00394704 0.00893678 0.0135973 0.0155681 0.0124789 0.0039845 -0.00462219 -0.00917891 -0.00586033 
-0.000263495 0.00309568 0.00101126 -0.00103544 -0.000620857 0.0005231 0.000177415 -0.000645906 0.000185882 0.000668826 
-0.000312088 -0.000315536 -0.000110985 -3.09602e-05 0.000656744 0.000523751 -0.000441701 -0.00022008 -0.000156594 -0.000451666 
9.62244e-05 5.66019e-05 -1.67201e-05 9.43293e-05 -0.000169471 0.000136974 -0.000248669 0.000285333 -3.72774e-05 8.00679e-05 
-2.55896e-05 4.50804e-06 -0.000194642 0.000268969 0.000299846 0.00070686 -0.000101959 -0.000615558 -0.00123081 -0.000861552 
0.0023101 0.000187402 0.000522386 -0.00641673 0.00723636 -0.00176755 -0.00390834 0.00102376 9.76713e-05 0.004958 
-0.00546458 -0.000728344 0.00190448 0.000838193 0.000134083 -0.00165347 -0.000220115 0.000983692 0.000673292 -0.000512035 
-0.000767558 0.000264534 0.000187375 -0.000204645 -0.00018028 0.000120576 0.000259333 3.02358e-05 -5.73334e-05 -4.00626e-05 
-0.000305761 0.000507762 0.00062939 -0.00119999 -0.00159389 0.000580399 0.00252985 0.00277254 -0.000146863 -0.00446599 
-0.00587205 -0.00387436 0.000615943 0.00599358 0.00936699 0.0110861 0.0103329 0.00838968 0.0065526 0.00390469 
0.0014901 -0.00260079 -0.00727142 -0.0121966 -0.0150126 -0.0127358 -0.00580649 0.00410138 0.0100085 0.0095684 
0.00357793 -0.00158218 -0.00235008 -0.000457097 0.000792693 6.89559e-05 -8.98745e-05 0.000480086 -8.96298e-05 -0.000311655 
-6.76299e-05 0.000120079 0.000136803 0.000299958 5.23905e-05 -0.000634454 -0.000231691 0.000289724 0.000366357 0.000347917 
7.3983e-05 -9.0527e-05 0.000142224 -0.000347819 -5.72589e-05 0.000111541 -0.000160595 0.000248585 -6.77532e-05 0.00039021 
-0.000176881 0.000174412 -0.000438381 -0.000577637 -0.000539237 -0.000116809 0.00138008 0.00067813 0.00144372 -0.00346892 
0.000899095 -0.000809817 0.00667786 -0.00854104 0.00278117 0.00394891 -0.00116864 0.000733606 -0.00597529 0.00586761 
0.0010411 -0.00210737 -0.000921347 -0.000349138 0.00138344 0.000987221 -0.00108298 -0.000716603 0.000158749 0.000882427 
-0.00032358 -0.000446719 0.000122914 4.59151e-05 3.92309e-05 -0.000353885 -3.29416e-05 0.000386591 1.76698e-06 -7.70403e-05 
-0.000120234 4.59913e-05 -0.000464875 -0.000706182 0.00084207 0.00183978 0.00047313 -0.00176912 -0.00367475 -0.00199642 
0.00237327 0.0062503 0.00684676 0.00359942 -0.00182103 -0.00711811 -0.0105056 -0.0122498 -0.0108985 -0.00945479 
-0.00547189 -0.00182414 0.00393967 0.00876914 0.0123615 0.0113005 0.00530547 -0.00404671 -0.0114081 -0.0128985 
-0.00749822 -0.00109051 0.00224229 0.00166074 0.000428719 3.89187e-05 -0.000645183 -0.000555125 -4.61323e-05 0.000387446 
4.83495e-05 -0.000363887 0.000337889 -3.31859e-05 -0.0008606 0.000233219 0.000828697 -0.000359915 3.86457e-05 -0.000425692 
-0.000270955 0.000337389 -0.000274619 0.000293197 0.000336754 -0.000434985 0.000282398 -0.000657868 -0.000188615 -4.43727e-05 
5.81559e-06 0.00063077 0.000740996 0.000516139 1.98493e-05 -0.00181978 -0.00035884 -0.00147358 0.00406415 -0.00149791 
0.000202208 -0.00598699 0.00908167 -0.00318126 -0.00419613 0.00201612 -0.00233222 0.00770728 -0.00690948 -0.00124371 
0.00211028 0.00127981 0.000373925 -0.000764226 -0.00166359 0.00081537 0.00103195 -3.34523e-05 -0.000843086 -1.13071e-05 
0.000673351 -0.00016372 -0.000130151 -0.000389618 0.000110806 0.000270175 -0.000345743 4.40346e-05 0.000119533 -5.03821e-05 
-0.000201492 -0.000361933 -0.0003206 0.00069962 0.00129785 -0.000378018 -0.00195273 -0.00166287 0.000571512 0.00382894 
0.00370795 0.000600275 -0.00487033 -0.00810796 -0.00770758 -0.0036219 0.00233354 0.00678675 0.010792 0.0104409 
0.00991633 0.00535806 0.00144512 -0.00451085 -0.00752683 -0.00816281 -0.00283579 0.00530871 0.0136433 0.0158518 
0.0117817 0.00431386 -0.00107213 -0.00212726 -0.00180106 -0.00121528 7.70284e-05 0.00157135 0.00092034 -0.00122481 
-0.000289532 0.00110462 -0.000431211 -0.000855707 0.00103412 0.000321206 -0.000785717 -0.000115425 0.000146974 -0.00051152 