# vtk DataFile Version 2.0
Titre
ASCII
DATASET STRUCTURED_POINTS
DIMENSIONS 100 100 1
ORIGIN 0.0 0.0 0.0
SPACING 0.1 0.1 0.0
POINT_DATA 10000 
SCALARS rho float
LOOKUP_TABLE default
0.0038478 0.00234719 0.00318309 -0.000352225 -0.00222094 -0.00181121 0.000309795 0.000758225 -2.54183e-05 -0.000389445 
0.000245715 0.000293401 -0.000584591 -0.000218547 0.000634772 0.00076908 -0.000392707 -0.000873321 5.3291e-05 0.000536654 
-2.54171e-05 -0.000672266 -0.000393785 9.21524e-05 0.000350683 0.000146002 -1.86559e-05 0.000399164 0.00103761 0.00104754 
0.000106151 -0.00149588 -0.0029812 -0.00336928 -0.00250041 -0.000578127 0.00169317 0.0035524 0.00451209 0.00437737 
0.0032667 0.00158098 -0.000288444 -0.00191125 -0.00301012 -0.00349507 -0.00332885 -0.00271742 -0.00176006 -0.000720569 
0.000301561 0.00115497 0.0017864 0.00218245 0.0023192 0.0022708 0.00203169 0.00170193 0.00129364 0.000871487 
0.000444389 1.43921e-05 -0.000421145 -0.000864159 -0.0012924 -0.00166261 -0.00195666 -0.00218711 -0.00240472 -0.00267196 
-0.00300232 -0.0034095 -0.00386588 -0.0043565 -0.00478778 -0.00507491 -0.00510184 -0.00490275 -0.00451327 -0.00407341 
-0.00359151 -0.00305743 -0.00236394 -0.00150253 -0.000529281 0.000333327 0.000901241 0.000972131 0.000633635 -9.66673e-06 
-0.00061781 -0.00101978 -0.00102702 -0.000663734 -0.000367504 -8.47724e-05 -6.34927e-05 0.000725707 0.00113671 0.00427416 
-3.79997e-05 -0.00289148 -0.0032706 -0.00476224 -0.00136003 0.00180697 0.00245668 0.00103791 -0.000819269 -0.000975575 
0.000721901 0.000356633 -0.000124702 -0.000160147 0.000349323 0.000177823 -0.000642212 5.50939e-05 0.000409706 6.61295e-05 
-0.000325201 -5.01605e-05 -0.000149853 -0.000279562 0.000156671 0.000606672 0.00113406 0.00107992 -7.23548e-05 -0.00192107 
-0.00325828 -0.00357459 -0.0019768 0.00079972 0.00371526 0.00561728 0.00571037 0.00387595 0.000956559 -0.00233749 
-0.00476216 -0.00592823 -0.00554374 -0.00393323 -0.00161987 0.000829714 0.00289352 0.0042634 0.00482972 0.00462627 
0.00383775 0.00266061 0.00131323 -2.45049e-05 -0.00123141 -0.00222449 -0.00297141 -0.00347936 -0.0037609 -0.00385374 
-0.00380362 -0.0036141 -0.00336976 -0.00302681 -0.00268271 -0.0022843 -0.00188952 -0.00145631 -0.00101735 -0.000541267 
-7.99325e-05 0.000403556 0.000861741 0.0013263 0.00175441 0.00217146 0.0025532 0.00289475 0.0031185 0.00316077 
0.00288474 0.00225917 0.00128736 0.000177674 -0.000879498 -0.00161669 -0.00196732 -0.00189115 -0.00162259 -0.00120567 
-0.000845616 -0.000551287 -0.00036654 -0.000141327 0.00018389 -6.13067e-05 -0.00105947 -0.00141652 -0.00431454 -0.000124683 
0.000759331 -0.000496762 0.00052781 0.000471879 0.00342866 0.00138531 -0.000739619 -0.00183093 -0.00157129 0.00129921 
0.00112812 -0.000730192 -0.000637983 6.41694e-05 0.000587989 -0.000731932 -0.000294228 0.000608448 5.78155e-05 -0.000379248 
-0.000139697 -1.51967e-05 -0.000483139 0.000304153 0.000876705 0.00106338 0.000674351 -0.000610901 -0.00226803 -0.00266547 
-0.0019021 1.74084e-05 0.00231446 0.00330659 0.00274813 0.00073409 -0.00195863 -0.00387873 -0.00439266 -0.00323043 
-0.000719784 0.00208597 0.00451058 0.00577614 0.00563455 0.00434726 0.00210812 -0.000300232 -0.0026445 -0.00435563 
-0.00538315 -0.00563926 -0.00518939 -0.00428619 -0.00297208 -0.00158759 -0.000111323 0.00121287 0.00241245 0.00340817 
0.00417953 0.00476956 0.00513299 0.00534392 0.00537797 0.00529329 0.00506146 0.00476684 0.00433766 0.0038984 
0.003349 0.0027937 0.0021351 0.00148176 0.000739299 2.5304e-05 -0.00069593 -0.00127711 -0.00171008 -0.00184613 
-0.00171781 -0.00128777 -0.000733261 -0.000134688 0.000344836 0.000635079 0.000678239 0.000489493 8.50238e-05 -0.000487078 
-0.000998694 -0.0013592 -0.00156587 -0.0016528 -0.00114693 0.000130237 0.000256701 0.00304923 -0.000732942 4.28075e-05 
-0.00088099 -0.00269167 -0.00295135 -0.00168759 8.34034e-05 -0.00143141 0.000732854 0.000673781 0.00192203 0.00149377 
-0.0015318 -0.000961148 0.000455672 0.000888429 -0.000344166 -0.000690976 0.0010267 0.000308825 -0.00048213 -0.000189677 
0.000212967 -0.000424837 0.000119914 0.00113851 0.000857685 0.000467317 -0.00062465 -0.00195265 -0.00218296 -0.00110902 
-9.35567e-05 0.00127205 0.00128101 0.000369248 -0.000637263 -0.00122675 -0.000814215 0.000757121 0.00221247 0.00344193 
0.00328427 0.00197316 -0.000205835 -0.00269782 -0.00464132 -0.00567161 -0.00552919 -0.00425711 -0.00229858 9.0085e-05 
0.00233691 0.0042281 0.00550066 0.00607714 0.00603404 0.00539871 0.00439805 0.00309438 0.00171462 0.000279314 
-0.0010115 -0.00222953 -0.00319522 -0.00402819 -0.00461039 -0.00500581 -0.00520858 -0.00520677 -0.00505979 -0.00473196 
-0.00427617 -0.00364179 -0.00293212 -0.00206508 -0.00117565 -0.000236428 0.000601053 0.00131025 0.00173271 0.00185075 
0.0015966 0.00106488 0.00033527 -0.00045297 -0.0011118 -0.00152584 -0.00157919 -0.00131022 -0.000818144 -0.000400503 
-0.000188092 -7.27299e-05 4.25943e-05 -0.00032271 -0.00128053 -0.00112277 -0.00406444 -0.000265033 -0.00170599 -0.00147418 
-0.000496317 -0.00219233 0.000412248 0.0033194 0.00255041 0.00177398 0.000720276 -0.00178188 -0.00085185 -0.00202015 
-0.000925785 0.00131209 0.000806025 -0.000315077 -0.000996104 0.00076853 0.000675472 -0.000875722 -0.000278254 0.000296392 
-0.000179024 -0.000239957 0.00127686 0.000882335 0.000221895 -0.000388354 -0.0014853 -0.00184013 -0.000752033 -0.000123714 
0.00054544 0.000948379 0.000230895 6.20584e-05 0.000140616 0.000282755 0.000769855 0.000532538 -0.000300741 -0.00128062 
-0.0024651 -0.00273652 -0.00223909 -0.000906553 0.00112979 0.0029141 0.00451045 0.0050598 0.00482775 0.00369595 
0.00192619 -2.14146e-05 -0.0020894 -0.00369185 -0.00498756 -0.00559718 -0.00573764 -0.00535908 -0.00455925 -0.00356839 
-0.00231131 -0.00113193 0.000122401 0.00115528 0.00211162 0.00278252 0.00332831 0.00357211 0.00368799 0.00352478 
0.00321152 0.00269354 0.00204211 0.0012536 0.000435053 -0.00039001 -0.00107876 -0.00158905 -0.00178533 -0.00170605 
-0.00132325 -0.000783332 -0.000124701 0.000404353 0.000771602 0.000787359 0.000540829 6.92327e-05 -0.000343374 -0.000644833 
-0.000981498 -0.00136964 -0.00126213 -0.000439083 -0.000725209 0.00257772 -0.0013899 0.000165427 -2.60938e-05 -0.00113175 
-0.00197852 -0.0018219 0.00184929 0.00080741 -0.000886061 -0.00125292 -0.00187373 0.000269727 0.00248056 0.00151901 
0.00186584 0.000338043 -0.000868134 -0.000586307 0.000510241 0.00108348 -0.000704169 -0.000354176 0.00057863 2.31518e-05 
-0.000405771 0.000959713 0.00116454 -0.00010372 -0.000104799 -0.000866539 -0.00141765 -0.00066768 8.31744e-05 -6.10795e-05 
0.000672592 0.00010155 -0.000245806 -1.27484e-05 -0.000180583 -0.000228269 -4.75053e-05 -0.000543268 -0.000114513 0.00017181 
0.000871505 0.00170457 0.00194589 0.00183675 0.000966955 -0.000440838 -0.00182943 -0.00328153 -0.00396385 -0.00416378 
-0.00356207 -0.00237919 -0.000926162 0.00080328 0.00223459 0.00355691 0.00431427 0.0047461 0.00464653 0.0042272 
0.0034627 0.0025155 0.00147386 0.000376411 -0.000566265 -0.00150327 -0.00213434 -0.00270029 -0.00291498 -0.00302157 
-0.00280107 -0.00248978 -0.00191058 -0.0013134 -0.00057751 4.6869e-05 0.00063853 0.000940328 0.00107409 0.000875069 
0.000489106 -0.000127083 -0.000722686 -0.00123656 -0.00142351 -0.00127281 -0.00083998 -0.000369169 -2.8034e-05 0.000370359 
0.000692929 0.000483146 -0.000401316 -7.66573e-05 -0.00355883 0.000571006 -0.00123538 -0.00149531 -0.000644637 -0.0011881 
-0.00107335 0.00164138 0.00195502 0.000786018 0.00037867 0.000365748 0.000506754 0.00120174 -0.000885039 -0.00291371 
-0.00205733 -0.00128736 0.0003679 0.000769431 0.000611413 -0.000370661 -0.000634089 0.000484795 -3.71687e-05 -0.000518771 
0.000493235 0.0013566 2.99365e-05 1.83148e-05 -1.93206e-05 -0.00102603 -0.000748381 8.57677e-05 -0.00028668 6.53882e-05 
0.000360706 -0.000471386 0.000121683 0.000212084 -9.81464e-06 0.000433978 0.000286385 0.000179953 0.000512035 -5.66345e-05 
-0.000161416 -0.00077582 -0.00144157 -0.00151059 -0.00165935 -0.000816929 9.58175e-05 0.00134687 0.00255999 0.00321552 
0.00361836 0.00313549 0.00238661 0.00108476 -0.000291775 -0.00161997 -0.00283732 -0.00353594 -0.00407222 -0.0039462 
-0.00371243 -0.00298633 -0.00222738 -0.00127636 -0.000364463 0.000501969 0.00124004 0.00178033 0.0021625 0.00226162 
0.00221532 0.0018973 0.00146127 0.000847841 0.000218023 -0.000443737 -0.000927502 -0.00127151 -0.00133937 -0.00114423 
-0.000730015 -0.000217801 0.00017736 0.000335825 0.000135056 -0.000207186 -0.000496599 -0.000531259 -0.000657314 -0.000811523 
-0.000616909 -2.8404e-05 -0.000744802 0.00270363 -0.00172224 0.000376318 0.000868217 -0.000212257 -0.000339103 -0.000164006 
0.000103804 0.000256772 6.80623e-05 0.000431111 -0.000904117 -4.53032e-05 -0.000145631 0.000643788 0.000330422 0.00179201 
0.00369572 0.00272363 0.00104786 -0.000580278 -0.000467865 -0.000195116 0.000245328 6.03279e-05 -0.000356906 0.000365657 
0.00120936 0.000451226 -6.1447e-05 0.000442326 -0.000753848 -0.00101354 -0.000110441 -0.000111364 -0.000375875 0.000613396 
-0.000126678 -4.15595e-05 0.000565667 -8.1461e-05 -4.04462e-05 0.000213906 -0.000514153 -7.89812e-05 -0.000364739 -0.000486797 
-5.33194e-05 -8.94998e-05 0.000520141 0.00100876 0.00112936 0.0014556 0.000792176 0.0003061 -0.000742774 -0.00171826 
-0.00234191 -0.00292473 -0.00262616 -0.00230712 -0.00126784 -0.000274057 0.000879257 0.00190381 0.00259031 0.00311789 
0.00310965 0.00301206 0.00242708 0.00189814 0.00105243 0.000416799 -0.000326861 -0.000798517 -0.00121299 -0.0013329 
-0.00135439 -0.00108059 -0.000743013 -0.0001965 0.000308077 0.000824367 0.00113492 0.00130072 0.00109361 0.000733672 
0.00012629 -0.000340147 -0.000709767 -0.000734767 -0.00069577 -0.000678349 -0.000759933 -0.000519806 2.94168e-07 0.000238028 
0.000131185 0.00112546 -0.00254061 0.00196394 -0.000496691 -0.00132007 -0.000156039 9.53114e-05 -0.000343605 -0.000460343 
-0.000785943 0.000154805 0.0025471 0.000993447 -0.00037227 0.00106886 -0.000345238 0.000570267 -0.00143203 -0.00159633 
-0.00241975 -0.00406598 -0.00273846 -0.00073419 0.000884683 0.000346153 -0.000314719 -0.000182352 0.000253299 0.000681427 
0.000581196 9.63788e-05 0.000469608 -0.000305751 -0.000995736 -5.9454e-05 0.000244452 -0.000266828 0.000403018 0.000446005 
-0.000497561 0.00040282 -9.1526e-05 -0.000531709 0.000183639 -0.000152737 -0.000246304 0.000439837 -0.000173687 0.000359609 
0.000295786 9.84451e-06 0.000277758 -0.000381297 -0.000420816 -0.000693906 -0.000888689 -0.0004662 -0.000332925 0.000475269 
0.000937985 0.00149106 0.00183199 0.00170537 0.0015845 0.000858042 0.000364945 -0.00051949 -0.00104261 -0.0016141 
-0.00187209 -0.00189938 -0.00177619 -0.00134598 -0.000953269 -0.000323599 0.000123375 0.000692052 0.000962052 0.00128005 
0.00123196 0.00119492 0.000810018 0.000499987 -1.81565e-06 -0.000305087 -0.000591265 -0.000513574 -0.000344671 7.86378e-05 
0.000354357 0.000542168 0.000431237 0.000251771 0.000165884 8.82047e-05 -0.000249793 -0.000850522 -0.000952174 -0.000694681 
-0.00145824 0.00261857 -0.00208467 0.0005285 0.00154429 0.000370043 -2.41973e-05 0.000383855 0.000540815 -0.000123529 
-0.000143947 0.00322476 0.00214852 -0.00190224 -0.00105687 9.13546e-05 -0.000647819 0.00139524 -0.000395577 0.00261591 
0.00304051 0.00344706 0.00435989 0.00250274 0.000686775 -0.00109518 -0.00038198 0.000427635 0.000165573 0.000474838 
0.00053711 0.00038206 -0.000111971 -0.00079106 -7.40681e-05 0.000201266 -0.000239759 -0.000106475 0.000441573 -0.000583557 
-0.000192764 0.000301759 -0.000543779 0.000170461 0.000482379 -0.000299002 0.000425682 0.000122102 -0.000239415 0.000292131 
-0.000331648 -9.81992e-05 1.62049e-05 -0.000282369 0.000381497 9.40365e-05 0.000466702 0.000418596 8.52864e-05 8.26335e-05 
-0.00065394 -0.000700103 -0.00120524 -0.00117404 -0.00106376 -0.000851991 -0.00023443 8.23595e-05 0.000795466 0.00101163 
0.00143875 0.00137287 0.0013924 0.00105879 0.000750363 0.000281763 -0.000149948 -0.000566318 -0.000899352 -0.00108833 
-0.00114244 -0.000978887 -0.000735483 -0.000339029 4.26877e-05 0.000371811 0.000523636 0.000504004 0.000375526 0.000237774 
0.000225229 0.000276037 0.000337627 8.50733e-05 -0.000133178 -0.000123823 0.000237163 0.000170292 2.30506e-06 0.00103202 
-0.00289549 0.00250059 -4.38637e-06 -0.00116401 -1.88973e-05 0.000488229 0.00023529 7.06463e-05 0.000472444 0.000875464 
0.00132306 0.0021731 -0.00189875 -0.00232679 0.00112438 0.00113137 0.000766794 0.00068625 -0.00207958 3.65358e-05 
-0.00365263 -0.00417824 -0.00461047 -0.00436918 -0.00209859 -0.000943747 0.000783854 0.00015771 0.000137552 0.000929314 
0.000312848 -0.000182535 -0.000399849 0.000147334 0.000165615 -0.000231634 -1.15229e-05 0.000325959 -8.18114e-05 -0.000336962 
0.000644264 -8.21085e-05 -6.55302e-05 0.000662857 -0.000188597 -0.000236851 0.000376171 -0.000555979 1.78495e-05 -3.83752e-05 
-0.000431525 0.000254034 -0.000170292 9.53498e-05 0.000189543 -0.000247153 9.21776e-05 -0.000377106 -0.000139793 -5.54607e-05 
5.78221e-05 0.000613726 0.000625233 0.00115321 0.000986936 0.00106652 0.000698468 0.000300409 -0.000112389 -0.000678921 
-0.000910722 -0.00132136 -0.00125388 -0.00134204 -0.000966234 -0.000794225 -0.00025686 -1.26671e-05 0.000452657 0.000519442 
0.000674557 0.000462542 0.000303498 -0.000117778 -0.000328249 -0.000614427 -0.000561218 -0.000602065 -0.000434165 -0.000455431 
-0.000340347 -0.000198002 0.000317714 0.000709856 0.000697258 0.000260954 0.000127081 4.25328e-06 -0.00127826 0.00270839 
-0.00303866 -0.000348515 0.00122335 0.000288674 -0.000112541 0.000228952 0.000570894 0.000529733 0.000345755 0.000719393 
0.000954873 -0.0002049 -0.00125129 0.00133057 0.00217657 -7.48643e-05 -0.0006587 -0.00121661 -0.000727602 0.00253043 
0.000738534 0.0045192 0.00487798 0.00554214 0.00386771 0.00126897 0.000807131 -0.000284844 0.000668973 0.000257247 
-0.00038347 0.000114289 0.000273941 -4.38999e-05 -0.000651763 7.46271e-05 0.000154465 -0.000190474 -0.00031311 0.000287198 
4.76107e-05 -0.000489052 0.000302056 -9.51915e-05 -0.000676006 0.000244859 -0.000126814 -0.000372734 0.000391612 -0.000214367 
0.000226708 0.000477985 -6.47057e-05 0.000462318 -0.000111035 -1.40155e-05 7.95303e-05 -0.00023666 0.000271695 -0.000104715 
0.000174811 -6.20839e-05 -0.000252755 -0.000295051 -0.000714876 -0.000550783 -0.000820391 -0.00050687 -0.000510179 -0.00013433 
1.1442e-05 0.000293799 0.000417737 0.000434753 0.000448659 0.000213902 0.000126565 -0.000219556 -0.0002371 -0.000481353 
-0.000359116 -0.000394293 -0.00013085 -9.57813e-05 0.000106915 1.13948e-05 0.000123061 6.13099e-05 0.000183903 0.000173618 
-1.92055e-08 -0.000452226 -0.000835918 -0.0006028 -7.26885e-05 0.000200397 0.000450701 0.00173731 -0.00240773 0.0036619 
0.00096059 -0.000879637 -3.25283e-05 0.000323301 4.63908e-07 -0.000201125 9.08875e-06 0.000410779 0.000563275 0.000525274 
0.000278298 0.000379785 0.000931405 0.000426004 -0.00119735 -0.00185688 -0.000687602 0.000125092 0.00117873 0.000719267 
-0.00279622 -0.0019905 -0.00547618 -0.0054601 -0.006368 -0.00355491 -0.000860315 -0.000513197 0.000343898 -0.000135737 
0.000639104 0.000278035 -0.000584576 -0.00065955 0.000320104 0.000650088 -0.000363351 -4.10719e-06 0.000416481 0.00014412 
-0.000340443 0.000257865 0.000236577 -0.000395394 0.000276926 0.000526382 -0.00025944 0.000371558 0.000287239 -0.000112636 
0.000431728 -0.00030062 -0.000263942 -0.000150129 -0.000547221 7.31235e-06 -0.000219858 1.61014e-05 0.000147502 -9.83216e-05 
0.000237512 -0.000112042 0.000201645 3.93142e-05 0.000209626 0.000256302 0.000233549 0.000406316 0.000152488 0.000343794 
-3.38188e-05 0.000126119 -0.000170667 -7.09251e-06 -0.000129715 0.000109465 0.000164195 0.00037321 0.00048802 0.000620539 
0.00061469 0.000602044 0.000487033 0.00040543 0.000281898 0.000106686 -0.000137712 -0.000352205 -0.000544163 -0.000298332 
9.59433e-05 0.000556465 0.000237687 -0.000206254 -0.000349877 -0.000533276 -0.0015139 0.00292136 -0.00329684 -0.000548233 
0.00158567 0.00074291 0.000267182 0.000417558 0.000405685 0.000142957 -7.87887e-05 8.511e-05 0.000339206 0.000654405 
0.000601453 0.00121531 -0.000623531 -0.00229207 -0.000391158 0.00113804 0.00168719 0.0011048 0.000203562 -0.000829628 
-0.000707683 0.00262786 0.00308725 0.00601897 0.00532694 0.00598393 0.0027222 0.000798709 0.000981686 0.000613559 
3.53016e-05 -0.0011933 -1.5881e-05 0.000957245 0.000635618 -0.00076837 -0.000346809 0.000591253 -0.000197722 -0.000593581 
0.000161108 0.000199713 -0.000385545 5.9331e-05 0.000378561 -0.000440526 -0.000218123 0.000153022 -0.000421346 -0.000184503 
-0.000154776 -0.000500379 0.000258507 -1.32774e-05 0.000276138 0.000439976 7.48067e-05 0.000417871 -4.26422e-05 0.000189095 
0.000100692 3.22595e-05 0.00030482 8.86142e-06 0.000352024 2.36125e-05 0.000241116 8.02082e-05 0.000143142 0.000179026 
9.9132e-05 0.000237859 4.63439e-05 0.000219356 -8.17284e-05 9.20783e-05 -0.000177962 -1.582e-05 -0.000242639 -3.02701e-05 
-0.000208603 -4.7509e-06 -0.000177172 9.97485e-06 1.85447e-05 0.00035897 0.00051136 0.000750674 0.000417875 -1.57812e-05 
-0.000509735 -0.00021683 0.000151372 6.92601e-05 0.000278246 0.000993725 -0.00346644 0.00322293 0.000871483 -0.00109596 
0.000114774 0.000891559 0.00074069 0.000533197 0.000417394 0.000280206 -4.65806e-05 -7.3715e-05 2.25212e-05 0.000591758 
0.000899301 -6.94079e-05 -0.0026705 -0.000554189 0.00290994 0.000817357 -0.00102511 -0.00188713 -0.00151105 -0.000408739 
9.22628e-05 0.000211807 -0.0026733 -0.00432339 -0.00682229 -0.00544176 -0.00501836 -0.00140702 -0.0001447 -0.00080565 
-0.000942545 0.000548754 0.00147755 -0.000625654 -0.00151437 -0.000262401 0.00107957 -0.00019042 -0.000740913 0.00049706 
0.000543023 -0.000445653 5.14512e-05 0.000334039 -0.000356039 -0.000206949 0.000401111 -0.000121975 -3.61062e-05 0.000338088 
7.09247e-05 0.000399384 0.000312325 -7.94138e-05 0.00011013 -0.000292264 -0.000178218 -8.04995e-05 -0.000232465 0.000160387 
-0.000173938 0.000112267 -9.92706e-05 -1.10508e-05 0.000119206 9.12011e-05 0.000507716 0.000345623 0.000789754 0.000521661 
0.000709987 0.000325334 0.000174733 -0.00019692 -0.000537556 -0.000766894 -0.000994912 -0.000891301 -0.000884059 -0.000493672 
-0.000318445 0.000125282 0.000147117 0.000170173 -0.000192726 -0.000489312 -0.000719492 -0.000438347 0.000150206 0.000606237 
0.000416392 2.71584e-05 0.000249425 -0.000178687 -0.00076988 0.00361296 -0.0035483 -0.00138364 0.00078599 -0.000240316 
-0.000740219 -0.000101878 0.000563559 0.000832394 0.000782102 0.000670451 0.000280749 -1.69999e-05 -0.000309994 0.000119144 
0.000460028 -0.00157707 -0.00150837 0.00248756 0.00169079 -0.00289237 -0.00156976 0.000472282 0.00222086 0.0019835 
0.000382685 0.000400292 0.000242975 0.00246503 0.0046132 0.00672995 0.00511567 0.00372373 0.000571469 5.51934e-05 
0.000978532 0.000879719 -0.00152416 -0.00164269 0.00142487 0.00195044 -0.000491984 -0.00106148 0.000858213 0.000723097 
-0.000863684 -0.000120819 0.000575597 -0.000267922 -0.000144865 0.000576926 -9.57703e-05 -7.778e-05 0.000327078 1.51929e-05 
-0.000133405 1.95945e-05 -0.000454625 4.99264e-06 -6.90694e-05 -7.38247e-06 0.000354356 -1.07627e-05 0.000292419 9.87624e-05 
0.000102903 0.000456271 0.000258119 0.000925438 0.000763511 0.00117933 0.00117882 0.00110278 0.00114508 0.000687105 
0.00073515 0.000139061 0.000171418 -0.000361026 -0.000316202 -0.000694889 -0.00063785 -0.000833919 -0.0006968 -0.000738262 
-0.000549797 -0.000365966 4.31811e-05 0.000377482 0.000739204 0.000643686 0.000237165 -0.00060867 -0.000936687 -0.00063906 
-2.6988e-05 -0.000160202 0.000520555 0.000932181 -0.00361109 0.00379672 0.00154091 -0.00096198 -4.56653e-05 0.000538772 
4.55432e-05 -0.000416783 -0.00027391 0.000156911 0.000493639 0.000710163 0.000588734 0.000433421 -0.000134211 -0.00042287 
-0.000206907 -0.00134316 0.000637708 0.00203812 -0.00179378 -0.00245221 0.00226273 0.0022775 0.000605621 -0.00235609 
-0.00274505 -0.000759701 -0.00103212 -0.00118858 -0.00301256 -0.00484037 -0.00608455 -0.00397931 -0.00158036 0.000525001 
1.64362e-05 -0.00122954 -0.000300629 0.00261643 0.00157522 -0.00237838 -0.00198675 0.00144996 0.000670073 -0.00155557 
-0.000359336 0.00110727 -0.000581383 -0.000481376 0.000424491 -0.000191855 -0.000564539 0.000297654 -0.000377672 -0.000358946 
-6.0392e-05 -0.000196356 5.38102e-05 0.000216495 -0.000136768 0.000176206 -7.96016e-05 -0.000118541 0.000280914 6.72315e-05 
0.000634977 0.000620656 0.000814365 0.0010998 0.000976674 0.00147411 0.00135871 0.0018812 0.00186928 0.00213717 
0.002014 0.00167561 0.00126478 0.000427213 -0.000143935 -0.000993749 -0.00120343 -0.001547 -0.00108328 -0.00078068 
-8.8495e-05 0.000167127 0.000461283 0.000356811 0.000481649 0.000623314 0.00103646 0.000870209 0.000156765 -0.000525225 
-0.000311913 -0.000881485 -0.000864104 0.00401399 -0.00364027 -0.00137241 0.00132749 0.000331998 -0.00050968 -0.000243448 
0.000207258 9.99674e-05 -0.000109762 -0.000182027 -3.71646e-05 0.000339679 0.000456571 0.000619883 0.00042359 -0.00046436 
-0.000269459 -0.000255718 0.000872431 -0.000200207 -0.00188989 0.00117311 0.0028268 -0.00111972 -0.00239987 -0.00182321 
0.00186505 0.00318835 0.00118699 0.00111059 0.00149474 0.0033602 0.00470711 0.00513579 0.00255546 -0.000504513 
-0.00139816 9.57059e-05 0.00130549 -0.000981566 -0.00375109 -0.00123155 0.00338524 0.00140173 -0.00236602 -2.32911e-06 
0.0021177 -0.000461718 -0.000961899 0.00128508 0.000139483 -0.000527102 0.000664977 0.000208085 -0.000168898 0.000697734 
0.000213141 0.000189455 0.000477249 -0.000194018 0.000221436 0.000204166 -3.42893e-06 0.000558695 0.00021213 0.000350093 
0.000480243 0.00031073 0.000996895 0.00107988 0.00192343 0.00247208 0.00313662 0.00394744 0.00409559 0.00463238 
0.00428659 0.00416365 0.00318155 0.00232287 0.000967962 -0.000306685 -0.001462 -0.00240023 -0.00268591 -0.0024647 
-0.00154713 -0.000358825 0.000795116 0.00144227 0.00132162 0.000702994 0.000257093 0.00048452 0.000553869 7.08887e-05 
0.000674095 0.000492307 -0.00439003 0.0036806 0.001472 -0.00148902 -0.000489811 0.000581106 0.000514851 4.16817e-05 
5.52541e-05 0.000106274 0.000118782 -1.36617e-05 -0.000306131 -0.000197333 -1.91657e-05 0.000277059 0.00085765 -7.98131e-05 
-3.98192e-05 5.12987e-05 -0.000312086 -0.000517695 0.000528813 0.00184467 -0.000587881 -0.00255318 0.0002308 0.00210372 
0.00258869 -0.00118368 -0.00351787 -0.00229065 -0.00162312 -0.00175882 -0.00344256 -0.00392874 -0.00346075 -0.000511939 
0.00234376 0.00187765 -0.000503658 -0.000978705 0.00290663 0.00477971 0.00046091 -0.00421865 -0.000124137 0.0030698 
-0.000834704 -0.00227631 0.00159884 0.000329123 -0.00168976 0.0005004 0.000436866 -0.00107196 0.000401044 -0.000195193 
-0.000659237 0.000199249 -0.000469014 -0.000313431 0.000357758 -0.000308393 0.000216414 0.000180221 1.74851e-05 0.000891671 
0.000990106 0.00182194 0.00247142 0.00300517 0.00421075 0.00470307 0.00596142 0.00671527 0.00766614 0.00825724 
0.00827416 0.00806833 0.00680671 0.00535784 0.00306663 0.000912777 -0.00127614 -0.00295987 -0.00410002 -0.00446878 
-0.00415157 -0.00303905 -0.00147436 0.000437042 0.00182832 0.00215249 0.0010783 5.27805e-05 -0.000264972 -0.00146571 
-0.000923847 0.0043346 -0.00367141 -0.00129369 0.00197116 0.000878194 -0.000584489 -0.000758627 -0.000251958 -4.99999e-05 
8.3048e-05 0.000133842 0.000159969 0.000320321 4.80108e-05 -0.000249598 -0.000358376 -0.000589383 0.000623054 0.000375326 
-1.20582e-06 -0.000500646 -0.000687446 0.0010746 0.00115548 -0.000749944 -0.0017918 0.000550714 0.0024411 0.000391969 
-0.00191502 -0.003105 0.000148233 0.00298156 0.00304949 0.00212284 0.00195174 0.00327477 0.00276929 0.00134337 
-0.00187285 -0.00363316 -0.00185453 0.00107471 -3.48008e-05 -0.00523847 -0.00543711 0.000918712 0.00453425 -0.00174346 
-0.00345581 0.00181695 0.00175596 -0.00266049 0.000609232 0.00157272 -0.0014294 4.51205e-05 0.00104889 -0.00103542 
0.000550474 0.00023488 -0.000591935 0.000946236 -0.000110815 -0.000185424 0.000589338 -2.93253e-05 0.00105803 0.00102744 
0.00121437 0.0021824 0.0025591 0.00415603 0.00554383 0.00758898 0.0099802 0.0120847 0.0143548 0.015732 
0.0165279 0.0159936 0.0142987 0.0113995 0.00751942 0.00311949 -0.00100934 -0.00437085 -0.00627771 -0.00680947 
-0.00598822 -0.00449056 -0.00274995 -0.00104572 0.000732196 0.00234395 0.0026269 0.00138241 0.0012985 -0.00066707 
-0.00616686 0.0025352 0.0010049 -0.00192728 -0.000574889 0.00107713 0.0011288 0.000360633 -0.000138483 -0.00028427 
-0.000232704 1.88079e-06 -4.1587e-05 0.000205937 0.000286135 -2.29843e-05 1.11759e-05 -0.000994491 -0.000311353 0.000473654 
-0.000261222 -0.000913681 0.0003164 0.00200916 -0.000757005 -0.00199646 0.000883695 0.00242007 -0.000235566 -0.00261178 
-0.00120606 0.00173972 0.00320675 0.00046559 -0.00237505 -0.00360579 -0.002571 -0.00190566 -0.00246178 -0.00101397 
0.00115002 0.00423664 0.00414018 0.00125734 -0.001538 0.00183354 0.00752513 0.00532681 -0.00290721 -0.00398897 
0.00392985 0.00332251 -0.00290146 -0.000429236 0.00328407 -0.00152978 -0.000789254 0.00232189 -0.000885344 -0.00036476 
0.0015406 -0.000775835 0.000624072 0.000705216 -0.000816465 0.00120141 0.000634363 0.000550052 0.00145295 0.000860998 
0.00258783 0.0033206 0.00489599 0.0072851 0.00945076 0.0127655 0.015657 0.0194832 0.0228136 0.025984 
0.0280533 0.0287703 0.0274352 0.0240944 0.0186286 0.011708 0.00404597 -0.00313073 -0.00861497 -0.0114737 
-0.0113008 -0.00850922 -0.00444862 -0.000710659 0.00158428 0.00305825 0.00383735 0.00162539 0.00156477 0.00494715 
-0.00493273 -0.00351566 0.000693195 0.000421249 -0.000659867 -0.000575787 3.30175e-05 0.000398371 0.000262969 0.000145102 
-0.000164455 -3.81431e-05 -0.000158604 -9.08975e-05 0.000311789 -2.59731e-05 0.000376372 -0.000508972 -0.0011038 0.000143839 
-0.000535646 -0.000619875 0.00139286 0.000990387 -0.00255208 -0.000169669 0.00299912 4.76994e-06 -0.00291582 -0.000682977 
0.00259327 0.00222002 -0.00169627 -0.00362634 -0.00118867 0.00172539 0.00394098 0.00301889 0.0016979 0.000974866 
-0.00137628 -0.00387388 -0.0062009 -0.00383241 -0.000161393 0.00157533 -0.00422289 -0.00919541 -0.00406153 0.00515494 
0.00244305 -0.00599679 -0.00231982 0.0038191 -0.00156907 -0.003295 0.00227938 -0.000581166 -0.00251568 0.0017332 
-0.000835705 -0.001571 0.00104987 -0.00140446 6.13174e-06 0.00070481 -0.00102769 0.00105667 0.000950862 0.00203252 
0.00382522 0.00479885 0.00803343 0.0104142 0.0147536 0.01968 0.0255599 0.0321112 0.0383061 0.0442185 
0.0480747 0.0500493 0.0483064 0.043919 0.0356072 0.0256521 0.0136874 0.00261995 -0.00748833 -0.0141263 
-0.0175502 -0.0162804 -0.0116679 -0.00459728 0.0013761 0.00480073 0.00794218 0.00503213 -0.00180466 0.00466708 
0.00157789 -0.00362581 -0.00260857 -0.000168651 0.000870107 0.000732589 8.97878e-05 -8.49602e-05 -0.000287856 -1.8715e-05 
-1.33924e-05 0.000225875 0.000176639 -0.00030702 7.44047e-05 -0.00021355 0.000266043 0.000378695 -0.00121683 -0.00029374 
-0.000471419 3.89662e-05 0.00152018 -0.000701161 -0.00209732 0.00232026 0.00172447 -0.00295193 -0.00129133 0.00270111 
0.00185675 -0.00209212 -0.00345977 0.00105585 0.00393237 0.00197461 -0.00115528 -0.00397886 -0.0032419 -0.00114649 
0.0011463 0.00430666 0.00657516 0.00743177 0.00281726 -0.00121691 -0.000950133 0.00682701 0.00978271 0.00149061 
-0.00707128 -0.000125362 0.00733833 0.000206478 -0.00407733 0.00380095 0.00247571 -0.00290269 0.0021637 0.00168014 
-0.00205151 0.00229818 0.000856719 -0.00080287 0.00228767 -0.000213745 0.000990341 0.00223612 0.00107891 0.00381265 
0.00384624 0.00666733 0.010018 0.014203 0.0211343 0.0280094 0.0379972 0.0476174 0.0591809 0.0689935 
0.0779446 0.0829954 0.0834928 0.078252 0.066721 0.0507158 0.0310932 0.0119063 -0.00524582 -0.0170058 
-0.0235339 -0.0242049 -0.0203831 -0.0127166 -0.00317401 0.00173544 0.00858946 0.0131476 0.0018282 -0.000886386 
0.00119218 -0.00084069 -0.00252906 -0.00181957 -0.000179108 0.00125681 0.00124575 0.000721801 -0.000115286 -0.000502884 
-0.000644515 -0.000283905 0.000482717 0.00014135 0.000223415 -0.000240615 -0.000510174 0.000810249 -0.000647262 -0.000541771 
-0.000243659 0.000412162 0.000738684 -0.00147684 -0.000265653 0.00266394 -0.00108085 -0.00258495 0.00211104 0.00224391 
-0.00183133 -0.00280759 0.000916265 0.00413083 -1.35695e-05 -0.00393756 -0.002784 0.000722569 0.00377792 0.00312886 
0.000120186 -0.00370499 -0.00753615 -0.00894936 -0.00773449 -0.00128424 0.00248537 -0.000487243 -0.00931297 -0.00903637 
0.00221951 0.00819057 -0.00243621 -0.00731226 0.0027485 0.00331751 -0.00554753 -0.000448476 0.00323419 -0.0034521 
2.62618e-06 0.00189146 -0.00295639 0.00121987 0.000651618 -0.00128441 0.0025711 0.000644282 0.00259828 0.00474515 
0.00563304 0.0112603 0.0143189 0.0221147 0.0299732 0.0409993 0.0546872 0.0693908 0.0872553 0.102775 
0.118831 0.128296 0.133575 0.128776 0.116435 0.0940931 0.0662541 0.0343103 0.00484406 -0.0191644 
-0.0326602 -0.0366177 -0.0314709 -0.022186 -0.00665728 0.000938343 0.0041157 0.0153036 0.012323 0.0021091 
-0.00263261 -0.00345957 -0.0033916 -0.00228892 -0.000883007 0.000546295 0.00138298 0.00123099 0.000740293 0.000235939 
-0.000302039 -0.000853613 -0.000179468 -3.21932e-05 0.000324825 0.000523983 -0.000919983 0.000414404 -7.79612e-05 -0.000512635 
-1.04143e-05 0.00028009 8.98984e-07 -0.00097536 0.000961396 0.000953728 -0.0022011 0.000125735 0.00270545 -0.00112598 
-0.0026241 0.00076681 0.00316244 0.000270004 -0.00420938 -0.00130278 0.00345905 0.00359927 -0.000189764 -0.00327179 
-0.00264275 0.00136465 0.00636385 0.0106573 0.0106327 0.00704274 -0.000508218 -0.00302509 0.00287216 0.0114367 
0.00678766 -0.00667628 -0.00833949 0.00481643 0.00561957 -0.00571933 -0.00166743 0.00601098 -0.00263173 -0.00264015 
0.00405883 -0.00220002 -0.00115026 0.00273843 -0.00259901 0.00130326 0.00147473 -0.000463161 0.00433208 0.00350925 
0.00799903 0.0123182 0.0175767 0.0285774 0.0389911 0.0571959 0.0754191 0.099771 0.124861 0.15088 
0.175166 0.192729 0.203208 0.200092 0.185937 0.156941 0.119822 0.0746343 0.0306578 -0.00964007 
-0.0374531 -0.0514311 -0.0493808 -0.0402258 -0.0185078 0.00360992 0.00649338 0.0126782 0.0164121 0.0109316 
0.00137988 -0.00458906 -0.00601525 -0.00449886 -0.0015226 0.000235261 0.00133784 0.00104005 0.000291896 1.12805e-05 