# vtk DataFile Version 2.0
Titre
ASCII
DATASET STRUCTURED_POINTS
DIMENSIONS 100 100 1
ORIGIN 0.0 0.0 0.0
SPACING 0.1 0.1 0.0
POINT_DATA 10000 
SCALARS rho float
LOOKUP_TABLE default
-0.00180013 -7.61702e-05 0.000661733 -0.00100504 -0.00030304 0.000414261 0.00070917 -8.80741e-05 -0.000438428 -0.000486788 
-0.000504831 -0.000376617 -0.00017814 0.000172516 0.000244271 6.05304e-06 3.55075e-05 0.00061692 0.00123155 0.000856108 
-0.000816272 -0.00268729 -0.00297785 -0.00127459 0.000882905 0.00182666 0.00124679 3.02585e-05 -0.000768281 -0.00067471 
6.30564e-05 0.000793006 0.000957154 0.000527742 -0.000118813 -0.000609688 -0.000736466 -0.000529577 -0.000151583 0.000210483 
0.000456451 0.00056497 0.000577062 0.000568442 0.000601737 0.000709033 0.000897834 0.00112637 0.00134131 0.00146083 
0.00140518 0.00109998 0.000499692 -0.000392602 -0.00150426 -0.00267488 -0.00366587 -0.00418415 -0.00395475 -0.00281235 
-0.000801237 0.00175371 0.00425045 0.00593038 0.00611401 0.00444979 0.00122536 -0.00263341 -0.00574766 -0.00673742 
-0.00481497 -0.000434735 0.00475987 0.00848839 0.0089166 0.00563505 0.000189155 -0.00469029 -0.00649783 -0.00442788 
9.25637e-05 0.00408341 0.00498752 0.00248941 -0.00123452 -0.00334415 -0.00251766 4.00743e-05 0.00195057 0.00179234 
0.000273078 -0.000786076 -0.000528804 0.00033986 0.000354702 -0.000215586 -0.000590376 -0.000165805 4.89506e-05 -0.000271868 
0.000931196 0.00184337 -0.000316594 -0.000125649 0.000463539 0.000657593 0.000172391 -0.000772338 -0.000545053 -0.000217154 
7.00781e-05 -4.75577e-05 -2.00103e-05 0.000126378 -0.00010258 5.14986e-05 0.000814249 0.00120477 3.65881e-06 -0.00248634 
-0.00407592 -0.00243965 0.00183871 0.00495218 0.00432282 0.00115164 -0.00163 -0.00222992 -0.000862289 0.0010133 
0.00195458 0.00139772 -4.50724e-05 -0.0012089 -0.00151433 -0.00102479 -0.000198183 0.00047959 0.000739904 0.000594629 
0.000214499 -0.00021496 -0.000541542 -0.000676634 -0.000629496 -0.000395986 -2.81246e-05 0.000461257 0.00104314 0.001695 
0.00236022 0.00295029 0.00331973 0.0032945 0.00269992 0.00141697 -0.000527309 -0.00292498 -0.00531762 -0.00708373 
-0.00752179 -0.00611142 -0.00273057 0.00210864 0.0072409 0.0110543 0.0119896 0.00920237 0.00312728 -0.0043681 
-0.01044 -0.012387 -0.00897926 -0.0013699 0.0070785 0.0122155 0.0112797 0.00463352 -0.00412511 -0.0100737 
-0.00990989 -0.00414571 0.00311897 0.00697754 0.00525327 2.06883e-05 -0.00423025 -0.00429638 -0.000974653 0.00222645 
0.00243207 0.000267547 -0.00140591 -0.000895871 0.000693629 0.000982838 5.12698e-05 -0.000527684 0.000462699 0.000584541 
-0.00064737 -0.00166258 -0.00115589 -2.01209e-05 0.000366148 -0.00015076 -0.00108018 -0.000751492 0.000179377 0.000184361 
-0.000130612 -0.0002861 0.000162195 1.84383e-05 2.17665e-06 0.000940691 0.00150551 0.000302053 -0.00217474 -0.00342213 
-0.00136292 0.00279412 0.00439639 0.00121675 -0.00330706 -0.00484895 -0.00267225 0.000899331 0.00318709 0.00296825 
0.000866273 -0.00141779 -0.00223951 -0.00146698 -9.77989e-05 0.000945316 0.00117245 0.000694253 -7.78662e-05 -0.000746394 
-0.00113801 -0.00126613 -0.00121707 -0.0011398 -0.00110551 -0.00111002 -0.00112361 -0.00101984 -0.000712808 -9.80552e-05 
0.000853595 0.00210756 0.00352727 0.00488074 0.00585685 0.00610318 0.00532773 0.00336555 0.000335364 -0.00333786 
-0.00687627 -0.00931159 -0.00971073 -0.00753732 -0.00297117 0.00290852 0.0082949 0.0111361 0.00999702 0.00478864 
-0.0027958 -0.00972534 -0.0127912 -0.0102264 -0.00285627 0.0059021 0.0115888 0.0111148 0.00471513 -0.00386164 
-0.00954906 -0.00903864 -0.00317111 0.00377394 0.00695953 0.00475709 -0.000381651 -0.00388153 -0.00325443 0.000169803 
0.00265399 0.00203931 -0.000374787 -0.00172741 -0.0009153 0.000457108 0.00049301 -0.000808668 -0.000688895 -0.000695034 
-1.48008e-05 0.0016094 0.00149159 0.00109865 6.56826e-05 -0.000907678 -0.000430363 0.000622732 0.000334603 -0.000369652 
-0.000255939 0.000349575 0.000318427 -0.000162423 0.000811973 0.00171721 0.000569664 -0.00204833 -0.00360518 -0.0020401 
0.00169682 0.00332859 0.000456298 -0.0028313 -0.00210573 0.00158178 0.00438032 0.00414666 0.00142728 -0.00169961 
-0.00328421 -0.00255105 -0.000416626 0.00119004 0.00150429 0.000791732 -0.000225308 -0.000884293 -0.000998049 -0.000774523 
-0.000527822 -0.000485123 -0.000712962 -0.00121766 -0.0018192 -0.00244654 -0.00293057 -0.003182 -0.00309907 -0.00259558 
-0.00161014 -0.000117056 0.00182551 0.00405882 0.00625968 0.00800259 0.00873772 0.00799926 0.00547396 0.00128367 
-0.00397124 -0.00913035 -0.0127209 -0.0133346 -0.0101747 -0.00358298 0.00477574 0.012173 0.0157017 0.0135258 
0.00593774 -0.00423826 -0.0125894 -0.0149957 -0.00992943 0.000397734 0.0106439 0.0152235 0.0114203 0.00155308 
-0.00844548 -0.0124192 -0.00843041 0.000190927 0.00699426 0.00752525 0.0023214 -0.00357036 -0.00535548 -0.00232947 
0.00185023 0.00317808 0.00133046 -0.000864828 -0.00103258 0.000133154 0.00113367 0.000208846 0.000247095 0.000614256 
0.00058307 -0.000278995 -0.00199197 -0.00177072 -0.00159429 -0.00056545 0.000568057 0.000113281 -0.000666767 -0.000146348 
0.000585628 0.000265041 -0.000516586 0.000354219 0.00189808 0.000993372 -0.00161461 -0.00339222 -0.00238507 0.00106931 
0.00345492 0.00144693 -0.00191912 -0.00168789 0.00085968 0.00173636 0.000119272 -0.00208824 -0.00300588 -0.00200686 
0.000159426 0.00216738 0.00252313 0.00131213 -5.21377e-05 -0.000757023 -0.000559154 0.000110156 0.00064588 0.000761538 
0.000472528 -3.24211e-05 -0.000613805 -0.00118186 -0.00173421 -0.00239854 -0.0031559 -0.00408034 -0.00502606 -0.00583561 
-0.00622452 -0.00588004 -0.00453835 -0.00202638 0.00154686 0.00583538 0.0100701 0.0133063 0.0144186 0.0125852 
0.00749271 -0.000220876 -0.0089399 -0.016231 -0.0195298 -0.0170158 -0.00866031 0.00338353 0.014941 0.0213591 
0.0193504 0.00905243 -0.00550748 -0.0175997 -0.0211319 -0.0138632 0.000505769 0.0141448 0.0190815 0.0125675 
-0.00121356 -0.0131709 -0.0157453 -0.00787934 0.00397064 0.0110903 0.00901138 0.000945951 -0.00563255 -0.00570536 
-0.000851099 0.00308799 0.0025322 -0.000447939 -0.00176173 -0.000950881 0.000648681 -0.000284371 -0.0010649 -0.000363108 
4.25103e-05 -0.00131423 -7.74517e-05 0.00151562 0.00149783 0.00132958 0.00035787 -0.000522884 0.00012772 0.000730619 
-9.01058e-05 -0.000843271 0.000245499 0.0022367 0.00171029 -0.00100416 -0.00294233 -0.00279334 -0.000136364 0.00280756 
0.00196865 -0.00174554 -0.00249922 -4.93029e-05 0.00132041 0.00079832 0.00029171 0.000643946 0.00139276 0.00169993 
0.00123389 5.55085e-05 -0.00144996 -0.00184019 -0.000981678 0.000292702 0.00129096 0.00153954 0.00127771 0.000987353 
0.000890393 0.0010601 0.00125873 0.00135265 0.00104247 0.000283734 -0.00100408 -0.00280201 -0.00496319 -0.00733026 
-0.0095536 -0.0112458 -0.0118977 -0.0110298 -0.00826602 -0.00352723 0.00283922 0.00992739 0.0163275 0.0203135 
0.0202787 0.0153181 0.00574809 -0.00647361 -0.0180767 -0.0250941 -0.0244779 -0.0153569 -0.000224888 0.0155299 
0.0253076 0.0243531 0.0123538 -0.00540822 -0.0202349 -0.0241373 -0.0147849 0.00268777 0.0178997 0.021646 
0.0117749 -0.00486471 -0.0169793 -0.0167585 -0.00552104 0.00747579 0.012551 0.00722295 -0.0022862 -0.00722916 
-0.00431327 0.00187873 0.00432784 0.00160256 -0.00121284 -0.00151367 0.00106339 0.00143319 -2.81562e-05 -0.000692947 
-0.000151006 -0.000385811 0.00103577 -9.45978e-05 -0.00156103 -0.00175277 -0.00126993 -0.00020718 0.000467991 -0.000422069 
-0.000826485 0.000688639 0.00242564 0.00189014 -0.00071001 -0.00256608 -0.00303961 -0.00156305 0.00178344 0.00275079 
-0.00061324 -0.00265761 -0.000395643 0.00158904 0.00121446 0.000374945 -0.000121199 -0.000668834 -0.00131063 -0.00168749 
-0.00124823 -0.000486552 0.000612326 0.00208664 0.00271706 0.00241885 0.001605 0.000917981 0.00097346 0.00161597 
0.00252989 0.00345161 0.0041524 0.0046631 0.00483302 0.00474182 0.00408437 0.00281192 0.000692613 -0.00232335 
-0.00609948 -0.0103704 -0.0144609 -0.0176403 -0.0188598 -0.0173423 -0.0124585 -0.00441882 0.00586249 0.0164019 
0.0246389 0.0278754 0.0242158 0.0135138 -0.00206817 -0.018102 -0.029029 -0.0301768 -0.0199284 -0.00130958 
0.0184827 0.030645 0.0289579 0.0134804 -0.00840683 -0.0252882 -0.0277464 -0.0144269 0.00650901 0.0218207 
0.021897 0.00726085 -0.0112707 -0.0205415 -0.0146199 0.000695107 0.0129718 0.0134 0.00369263 -0.00630612 
-0.00817673 -0.00208987 0.00399351 0.00342642 -0.000291342 -0.00292141 -0.00101494 0.000896888 0.000428537 -0.000472163 
5.63977e-06 -0.000106943 7.21473e-05 -0.00122027 -0.000234224 0.00134074 0.00196633 0.00128234 0.000150779 -0.000381558 
0.000912721 0.00184957 0.00100843 -0.000521118 -0.00153707 -0.00237469 -0.00249596 0.000459157 0.00330759 0.000968819 
-0.0026572 -0.00146438 0.00115016 0.00106443 0.000122265 -0.000272953 -0.000417607 -0.000247645 0.000280063 0.00121512 
0.00188779 0.00140579 0.000833842 2.79524e-05 -0.00110395 -0.00155235 -0.00118093 2.16954e-06 0.00147395 0.00262775 
0.00365193 0.00456645 0.00567059 0.00697373 0.00840363 0.00977059 0.0106956 0.010985 0.0101339 0.0079382 
0.00410728 -0.0013651 -0.00810789 -0.0154606 -0.0221395 -0.0267484 -0.0276228 -0.023648 -0.0143801 -0.000812182 
0.0147087 0.0284446 0.0363179 0.0348911 0.0232114 0.003479 -0.0183888 -0.0347335 -0.0385126 -0.0270989 
-0.00408188 0.020804 0.0359894 0.0333598 0.0139009 -0.0122575 -0.0302313 -0.0295981 -0.010906 0.0133605 
0.0271336 0.0213435 0.00103632 -0.0185212 -0.0231261 -0.0107589 0.0074052 0.0167894 0.0116393 -0.000921726 
-0.0089841 -0.00653134 0.00185709 0.005117 0.00263516 -0.00172237 -0.00161375 0.000707603 0.000875329 -0.000328881 
-0.000179145 -0.000262454 -0.00010626 -8.00596e-05 0.0012855 0.000731633 -0.000806186 -0.00193401 -0.00129676 -0.000219173 
0.000717879 0.000372183 0.000553247 0.000811879 -0.000993995 -0.00332377 -0.00162868 0.00281401 0.0023982 -0.00219295 
-0.00267695 0.000510138 0.00129495 0.000420475 3.29905e-05 -0.000197808 -0.000186361 -8.58443e-05 -0.000176938 -0.000196044 
-0.000908452 -0.00146101 -0.000850286 -0.000505761 2.44997e-05 0.000870433 0.00140893 0.00158561 0.00120038 0.000823879 
0.000986072 0.00161168 0.00303282 0.00491475 0.00745169 0.0103813 0.0136694 0.016929 0.01957 0.0210406 
0.0204074 0.0171942 0.0108725 0.00168506 -0.00965568 -0.0215412 -0.0318038 -0.0378818 -0.0374748 -0.0292953 
-0.0137046 0.00655513 0.0268645 0.0411334 0.044202 0.0333645 0.010848 -0.0164119 -0.0380293 -0.0446737 
-0.0321342 -0.00517636 0.0240899 0.0407067 0.0356329 0.0111265 -0.0186895 -0.0361234 -0.0304651 -0.00615029 
0.0199652 0.0297692 0.0173547 -0.00671504 -0.0234804 -0.0207865 -0.00280473 0.0143756 0.0171308 0.00616482 
-0.00653432 -0.0101633 -0.00260138 0.00405483 0.00423122 -0.000732438 -0.00277008 -0.00034741 0.0012326 -5.83386e-06 
-0.000499026 0.000227672 0.000325569 0.000402157 0.000317935 -0.00103481 -0.00105594 0.000124474 0.00155248 0.00138223 
0.00161813 0.00203336 0.00240495 -0.000685492 -0.00498069 -0.00404232 0.00169995 0.00368443 -0.000772145 -0.00310802 
-0.000169284 0.00154271 0.000732108 0.000180975 -0.000375372 -0.000513228 -0.000145378 -0.000249335 -7.67495e-05 0.00033848 
8.03799e-05 0.000517353 0.000418669 -0.00087696 -0.00167023 -0.0025645 -0.00355672 -0.00433536 -0.0049137 -0.00482946 
-0.00459685 -0.00408561 -0.00308117 -0.00155545 0.00110174 0.00470605 0.00953075 0.0150983 0.0211208 0.0268724 
0.0313079 0.0335314 0.0321221 0.0265208 0.0161135 0.0017564 -0.0150817 -0.0314427 -0.0438801 -0.0487189 
-0.043356 -0.0273235 -0.00316364 0.0233633 0.0444005 0.0522925 0.0427027 0.0173266 -0.0152172 -0.0419575 
-0.050552 -0.0360501 -0.00444121 0.0285231 0.0451788 0.0359325 0.00630849 -0.0254162 -0.0390967 -0.026443 
0.00274613 0.0269394 0.0289211 0.00874102 -0.0162736 -0.0259429 -0.0138704 0.00779516 0.0196867 0.0136614 
-0.000991499 -0.0110892 -0.00691981 0.00213236 0.00612795 0.00209731 -0.00248115 -0.00168085 0.000898573 0.000479249 
-0.000539022 0.000841205 -4.65143e-06 -6.39078e-05 -0.000399436 -0.000309377 0.000799457 0.00116931 0.000487952 -0.000388103 
0.000838313 0.000821269 -0.00115032 -0.00497384 -0.00400898 0.00185866 0.00464829 0.000931567 -0.00263003 -0.000950132 
0.00105077 0.00054654 0.00024677 -0.000387563 -0.000880099 -2.509e-05 4.78444e-05 -0.000439749 7.56192e-05 -0.000291166 
-0.00120477 -0.00146152 -0.00276133 -0.00324028 -0.00279099 -0.00309452 -0.00353781 -0.00445131 -0.00584422 -0.00755634 
-0.00985175 -0.0116984 -0.0132732 -0.0138908 -0.0133562 -0.0115363 -0.00781186 -0.00220322 0.00568219 0.0152309 
0.0257965 0.0359395 0.0438381 0.0477168 0.0456191 0.0367202 0.020847 -0.000183154 -0.0233008 -0.0436558 
-0.056206 -0.0562978 -0.0421942 -0.0156271 0.0166344 0.0448867 0.0585124 0.0511022 0.0236477 -0.0135435 
-0.0445002 -0.0541077 -0.0369029 -0.00115957 0.0335916 0.0473587 0.0318753 -0.0027015 -0.0334629 -0.0399233 
-0.0186038 0.0135741 0.0322171 0.0240732 -0.00225688 -0.0239561 -0.0235336 -0.003148 0.017443 0.0197853 
0.00671701 -0.00933291 -0.0115882 -0.00272 0.00534625 0.00449362 -0.00103607 -0.00246304 0.000151544 0.000811264 
-0.000440143 0.000898933 -0.0006492 0.00010685 0.000116332 0.00056583 0.000179929 -0.00093213 -0.00129376 0.000117504 
0.00235385 0.0013582 -0.000436215 -0.00170503 0.000994724 0.00231943 -3.10027e-06 -0.00212672 -0.00144849 -0.000210351 
-0.000200711 0.000564182 0.000425975 -0.00108018 -0.000200807 0.000607958 -0.000591889 -0.000399154 0.000235673 -0.000909744 
-0.000996205 -0.000949107 -0.00156495 -0.00109154 -0.00201013 -0.00391428 -0.00566306 -0.00802797 -0.0103475 -0.0129917 
-0.015808 -0.0185661 -0.0219513 -0.0249986 -0.0280657 -0.0299333 -0.0299005 -0.0272698 -0.0211797 -0.0118157 
0.00100427 0.0159189 0.0318103 0.0461637 0.0566343 0.0605058 0.0557475 0.0415846 0.0188654 -0.0089714 
-0.0367918 -0.0575226 -0.0649875 -0.0548793 -0.0283561 0.00805353 0.0421716 0.0611195 0.0556691 0.0268036 
-0.0137985 -0.0467605 -0.0551517 -0.0337805 0.00548108 0.039582 0.0475337 0.0246774 -0.012853 -0.0388737 
-0.0353592 -0.00672683 0.0237347 0.0322864 0.0139231 -0.0136571 -0.0266493 -0.0149606 0.00964175 0.021801 
0.0150439 -0.00323877 -0.0129451 -0.00753909 0.00290127 0.00603407 0.00107426 -0.00254674 -0.000782399 0.000873893 
-0.000317822 0.000644939 -0.000712541 0.000747554 5.16646e-05 -0.000187438 -0.00119572 -0.000582804 0.00144451 0.00375316 
0.00377793 0.000423293 -0.00234329 -0.00430618 -0.002602 -0.00111861 0.000914135 0.00146143 -0.000272198 -0.000855256 
0.00129504 0.00211843 -0.000891965 -0.0011849 0.00107324 -0.000189424 -0.00108011 0.00050442 -6.67396e-05 -0.00110896 
-0.000328072 -0.00100566 -0.00119765 -0.00114778 -0.00243769 -0.00253086 -0.00269386 -0.00356984 -0.00464868 -0.00713549 
-0.0103373 -0.0150482 -0.0209356 -0.0274581 -0.0348225 -0.0414398 -0.0473382 -0.0510123 -0.0515365 -0.0479725 
-0.0392148 -0.0255843 -0.00712702 0.0139104 0.035598 0.0541797 0.0665364 0.0692195 0.0603195 0.039681 
0.00994337 -0.0232359 -0.0518277 -0.0671384 -0.0628754 -0.0381451 0.000112729 0.0384818 0.0609758 0.05674 
0.0263763 -0.0160427 -0.0486798 -0.0533937 -0.0273556 0.0134589 0.0431648 0.0423781 0.0127764 -0.0235482 
-0.0397098 -0.0245348 0.00789586 0.0306761 0.0257951 0.000320311 -0.0219283 -0.0226992 -0.000802745 0.018578 
0.0201859 0.0039822 -0.011721 -0.0120405 -0.00132002 0.00595902 0.00330304 -0.0017288 -0.00151713 0.000663133 
-0.000100693 0.000353822 -0.000389469 0.000712678 -0.000719282 -0.000616559 -0.000505484 0.00144572 0.00224937 0.0016657 
-0.000939112 -0.00382068 -0.00430591 -0.0026962 0.00281866 0.00565126 0.00448232 -0.0016481 -0.00417352 9.01743e-05 
0.00273617 -0.00099112 -0.00316045 0.000643006 0.000835223 -0.00167337 0.000183169 0.00113998 -0.000667931 0.000101323 
0.000885096 0.000447886 0.00195352 0.00227264 0.00283307 0.0043518 0.00431961 0.00449683 0.00429082 0.00313301 
0.0016741 -0.00169356 -0.00602686 -0.0126035 -0.0210979 -0.031114 -0.0426537 -0.0535401 -0.0631164 -0.0690576 
-0.0701225 -0.0650258 -0.0531299 -0.0350464 -0.0117926 0.0137909 0.0388662 0.0590208 0.0706551 0.0698597 
0.0553622 0.0278974 -0.00705325 -0.0411567 -0.0634623 -0.0654133 -0.0439883 -0.00590683 0.0342475 0.0581387 
0.0538681 0.0225548 -0.0193149 -0.0481852 -0.0468272 -0.0164804 0.0224961 0.0434981 0.0321106 -0.00168193 
-0.0317188 -0.034314 -0.00936241 0.021036 0.0306901 0.0130564 -0.0123717 -0.0247787 -0.0107524 0.0118614 
0.0218119 0.0112634 -0.00726198 -0.0143074 -0.00605049 0.00422778 0.00476836 -0.000518127 -0.00185586 0.000378268 
0.000158146 5.95276e-05 -0.000118421 0.000205866 -0.000933627 -9.87839e-05 0.000334621 0.00136358 0.000649992 0.000810242 
0.000745418 0.000746413 0.000956464 0.00175487 0.00340744 -5.70757e-05 -0.00481561 -0.00663368 5.27475e-06 0.00471311 
0.000632476 -0.0031634 0.000730553 0.00306342 -0.0009674 -0.000342802 0.00241535 0.000409009 7.91931e-05 0.00230804 
0.00205263 0.00332648 0.00540532 0.00592735 0.00873272 0.0111397 0.0136236 0.0179202 0.0211884 0.0243834 
0.0264516 0.0265941 0.0253213 0.0204503 0.0130837 0.00199313 -0.0118609 -0.0274868 -0.0444001 -0.059779 
-0.0726795 -0.080114 -0.0812043 -0.0744546 -0.0602502 -0.0393044 -0.0135093 0.0142216 0.0404541 0.0603063 
0.0695036 0.063823 0.0428202 0.00962654 -0.0265652 -0.0541568 -0.0615375 -0.04459 -0.00875563 0.0298032 
0.0522269 0.0462614 0.0148843 -0.0233161 -0.0449953 -0.036002 -0.00361678 0.0293546 0.0381539 0.0177862 
-0.0150678 -0.0331078 -0.0221043 0.00694542 0.0282523 0.0220304 -0.000654014 -0.0206455 -0.0174017 0.00320184 
0.019116 0.0156734 -0.00187648 -0.0143949 -0.0104179 0.00147492 0.00565903 0.000836551 -0.00201911 2.61055e-05 
0.000512246 -0.000299512 5.78314e-05 -0.000264791 -0.000599788 0.000162202 0.000259548 0.000844438 0.00118626 0.00288976 
0.00153071 -0.00205791 -0.00509918 -0.00441893 -0.0014704 -0.00109983 0.000671302 0.00337213 0.00576497 0.000723084 
-0.00346747 -7.69284e-05 0.00299306 -0.00117697 -0.00246661 0.00207395 0.000999431 -0.000771273 0.00235544 0.00317944 
0.00328751 0.00675165 0.00806197 0.0105406 0.0151945 0.0186037 0.0245719 0.0307458 0.0359414 0.0426743 
0.048553 0.0548263 0.0594386 0.0609739 0.0595573 0.0528106 0.0420006 0.0259605 0.00633365 -0.0150132 
-0.036445 -0.0545449 -0.0683669 -0.0754834 -0.0761891 -0.0695461 -0.0565964 -0.0372882 -0.0133699 0.0132507 
0.0381476 0.0559743 0.0606705 0.0487391 0.0215536 -0.0129049 -0.0419755 -0.0528988 -0.0399497 -0.00832964 
0.0256022 0.0437853 0.0350321 0.00576867 -0.0256157 -0.0370006 -0.021771 0.00877187 0.0303107 0.0263907 
0.00156788 -0.0231767 -0.0260825 -0.00630619 0.0191301 0.0239931 0.00822614 -0.0132624 -0.0191282 -0.00431566 
0.0143222 0.0175647 0.00348998 -0.0123376 -0.0139355 -0.00251203 0.0056981 0.00257737 -0.0018623 -0.000451271 
0.000852148 -0.000756006 0.000268031 -0.000555901 -0.000229299 -9.07879e-05 0.000240877 0.00127746 0.00247942 0.00266468 
-0.00164656 -0.00465931 -0.00248561 0.00402319 0.00789188 0.00525035 0.00112801 -0.00298483 -0.0041159 -0.00411627 
0.00049661 0.00235803 -0.00147762 -0.00274704 0.00270664 0.00320621 -0.000620157 0.00235098 0.00445249 0.00291325 
0.0058872 0.00846136 0.00858451 0.0130188 0.0164825 0.0206396 0.0277739 0.0333122 0.0413868 0.0516176 
0.0619433 0.0738065 0.0831724 0.0913976 0.0961152 0.096102 0.0913964 0.0798083 0.0636363 0.0425624 
0.01987 -0.00254472 -0.0224803 -0.0381601 -0.0495446 -0.0560922 -0.0588189 -0.0564394 -0.0489862 -0.0341167 
-0.0131038 0.0124265 0.0354902 0.0494487 0.0469731 0.028239 -0.00134085 -0.0283048 -0.040724 -0.0313133 
-0.00630571 0.0205201 0.0318196 0.0215196 -0.00323572 -0.0236621 -0.0245233 -0.00601154 0.0170348 0.0239683 
0.0106939 -0.0113852 -0.0215741 -0.0121015 0.0100101 0.0214526 0.0130192 -0.00613778 -0.0171748 -0.0096469 
0.00798149 0.0164327 0.00737117 -0.0086192 -0.0151404 -0.00683934 0.00421482 0.00430547 -0.00105214 -0.000949217 
0.00107659 -0.00112407 0.000554698 -0.000807619 -8.74333e-05 -0.00036224 0.000806807 0.00200244 0.002792 0.000923175 
-0.00306215 -0.00241617 0.00135365 0.00328972 -0.000804598 -0.00702682 -0.00803914 -0.00367179 0.00362888 0.00593574 
0.00363965 -0.00203098 -0.00154602 0.0039866 0.00411952 -0.00179077 -9.93941e-05 0.00412146 0.00115752 0.00202658 
0.0059631 0.00418443 0.00535304 0.00894506 0.00911009 0.0131853 0.0167787 0.0200216 0.0281362 0.0362386 
0.0471062 0.0600548 0.0731647 0.0883906 0.100742 0.110955 0.115294 0.112379 0.10278 0.085762 
0.0659318 0.0440959 0.0251249 0.0093636 -0.00195217 -0.0109669 -0.0193704 -0.0286319 -0.0381778 -0.044529 
-0.0440544 -0.0329605 -0.0129166 0.0118168 0.031166 0.0381195 0.0284622 0.007602 -0.0144589 -0.0255227 
-0.0203291 -0.00327147 0.013792 0.0182618 0.00828542 -0.00875699 -0.0166387 -0.0102514 0.00664843 0.0167758 
0.0110248 -0.00513002 -0.0163264 -0.0129782 0.00340856 0.0163307 0.0138687 -0.00132165 -0.0134004 -0.0112517 
0.00258629 0.013419 0.00900032 -0.00515794 -0.0141567 -0.0098169 0.00161958 0.00524691 0.000330021 -0.00116038 
0.00112523 -0.00128286 0.00076756 -0.00112282 -3.33991e-05 -0.000328457 0.00149947 0.00213651 0.00221137 -0.000451285 
-0.00258041 -0.0008645 0.000456526 0.000163753 -0.000728726 0.00101298 0.00541147 0.00791172 0.00569377 -0.00212327 
-0.00623843 -0.00327345 0.00355334 0.00196136 -0.00439416 -0.00266969 0.00415629 0.00107368 -0.00187695 0.00285759 
0.000921843 -0.0032067 -0.00114656 -0.00426316 -0.0076953 -0.00772029 -0.0120704 -0.0124411 -0.0101713 -0.00759194 
0.00164845 0.0125469 0.0281777 0.0467741 0.0651239 0.0838541 0.0960883 0.102599 0.0999267 0.0893576 
0.0735309 0.054727 0.039242 0.0280216 0.0245392 0.0244999 0.0258837 0.0217071 0.0111015 -0.0068376 
-0.0256066 -0.0392572 -0.0409792 -0.0296984 -0.00903545 0.0118724 0.024925 0.0244058 0.0135225 -0.0018525 
-0.0107748 -0.0110952 -0.00256993 0.00418799 0.00570128 -0.001195 -0.00660569 -0.00541956 0.00336657 0.0119621 
0.0088397 -0.00282816 -0.0118582 -0.0106343 0.00160348 0.0120229 0.0121583 0.000774639 -0.0104916 -0.010697 
-0.000890322 0.00968351 0.00898173 -0.00269727 -0.0123044 -0.0108252 -0.000731989 0.0052744 0.00179079 -0.000906707 
0.000941657 -0.00125519 0.000710739 -0.00141674 5.37229e-05 -9.02829e-05 0.00188769 0.00194624 0.00183914 -0.000745379 
-0.00178101 -0.00105771 -0.000596609 0.00111967 0.00214569 0.000764146 -0.0025491 -0.00579995 -0.00691166 -0.00554275 
0.000818302 0.00524581 0.00272703 -0.0035403 -0.000553378 0.00621755 0.00246525 -0.00509908 -0.00142349 -0.0015026 
-0.0104984 -0.0124134 -0.01604 -0.0272725 -0.0329351 -0.0424213 -0.054766 -0.0611718 -0.0698544 -0.0736756 
-0.0713501 -0.066458 -0.0514317 -0.0323331 -0.006728 0.020666 0.0439493 0.0625867 0.068872 0.0658087 
0.0512908 0.0319828 0.0132248 0.00137851 0.00164422 0.0119208 0.0299744 0.0451043 0.0526503 0.0448232 
0.0257784 -0.00147624 -0.0248122 -0.0392548 -0.0378462 -0.0255416 -0.00566366 0.0103707 0.0201001 0.0179989 
0.0108522 0.000457444 -0.00507598 -0.00744291 -0.00624844 -0.00499115 -0.00366092 0.00113535 0.0053957 0.00981238 
0.00585071 -0.0054692 -0.0115044 -0.00929809 0.00265946 0.0106949 0.00926817 0.000372478 -0.00895346 -0.00910142 
-0.00168401 0.00650069 0.0076382 -0.00121499 -0.0105309 -0.0106436 -0.00201628 0.0050975 0.00303757 -0.000208101 
0.000472826 -0.00108383 0.000419985 -0.00148787 0.000187837 0.000165625 0.00200058 0.00190412 0.00171367 -0.00108137 
-0.00214843 -0.00196671 0.000154102 0.00317256 0.00167318 -0.00261771 -0.00294362 0.00208979 0.00705698 0.00728713 
0.00493135 -0.000248925 -0.00332054 -0.00065154 0.00386881 -0.00170827 -0.0100854 -0.00714596 -0.00389374 -0.0144826 
-0.0211476 -0.0234021 -0.0377248 -0.050764 -0.0613416 -0.0824265 -0.0992697 -0.115624 -0.134915 -0.144878 
-0.153062 -0.152541 -0.13972 -0.119933 -0.0873519 -0.052705 -0.0158436 0.0158488 0.0350134 0.0413793 
0.0289844 0.0071157 -0.0214417 -0.042972 -0.052305 -0.0434291 -0.019085 0.0133579 0.0442194 0.062482 
0.0645606 0.0485144 0.0229164 -0.00645627 -0.0280938 -0.0391191 -0.0347429 -0.020581 -0.000220521 0.0161638 
0.0236612 0.0195376 0.00704574 -0.00553273 -0.0146804 -0.0137649 -0.00874099 0.00333553 0.0115499 0.0132335 
0.00811287 -0.00743616 -0.0142427 -0.0104135 0.00381923 0.0136108 0.00881303 -0.00188318 -0.00979526 -0.00851531 
-0.000878485 0.00505829 0.00570415 -0.000549796 -0.00864672 -0.00991595 -0.00265821 0.00516661 0.00421323 0.000982742 
-0.000313734 -0.000757366 -2.64679e-05 -0.00132024 0.00018304 0.000355992 0.0020279 0.00202984 0.00136945 -0.0017435 
-0.0025035 -0.00127778 0.00231291 0.00319363 -0.00151158 -0.00401003 0.000210896 0.00391919 0.000341054 -0.00657999 
-0.00813591 -0.00517496 -0.000374958 0.000686089 -0.00390555 -0.008787 -0.00439129 -0.000954238 -0.0117083 -0.0226093 
-0.0239955 -0.0364718 -0.0552008 -0.0656499 -0.0861512 -0.111463 -0.129864 -0.156625 -0.179775 -0.196982 
-0.214942 -0.2177 -0.21193 -0.192423 -0.157081 -0.114656 -0.0611276 -0.0127487 0.0273704 0.0483915 
0.0455135 0.0234349 -0.0154365 -0.0539064 -0.0858773 -0.0956601 -0.0857732 -0.0543081 -0.014981 0.0247595 
0.052213 0.0642845 0.0581884 0.0390654 0.0113794 -0.0156194 -0.0354141 -0.0392571 -0.0282114 -0.0040731 
0.0172481 0.0295969 0.0220146 0.00646036 -0.0128525 -0.0197124 -0.0168713 -0.00382236 0.0126496 0.0159622 
0.0128651 -0.0052121 -0.0176466 -0.0144365 0.0012379 0.016217 0.0123232 -0.00281182 -0.0118544 -0.00891881 
0.000425388 0.00536773 0.00377495 -0.00129183 -0.00681415 -0.00813402 -0.00277738 0.00515818 0.00512045 0.00275467 
-0.00146635 -0.000266566 -0.000578981 -0.00100138 -4.30892e-05 0.000600357 0.00210626 0.00219483 0.000799355 -0.00222381 
-0.00227677 -0.000181474 0.00264782 0.000763702 -0.00290356 -0.00083042 0.00362674 0.00215538 -0.00270225 -0.00236973 
0.00395601 0.00697144 0.00434762 -0.00108431 -0.00282293 -0.000472455 -0.00162479 -0.0138674 -0.024514 -0.0240284 
-0.030936 -0.0497929 -0.0589847 -0.0702862 -0.0951256 -0.111835 -0.132057 -0.161101 -0.181512 -0.207337 
-0.229755 -0.239266 -0.24476 -0.228893 -0.198814 -0.151019 -0.0870055 -0.0231074 0.0398943 0.0803457 
0.0979757 0.0850684 0.0477388 -0.00240476 -0.0546331 -0.0905081 -0.108192 -0.0988096 -0.0749699 -0.0373762 
-0.00276951 0.0297791 0.0477403 0.055505 0.0442098 0.0231667 -0.00856783 -0.0313272 -0.0417941 -0.0266879 
-0.00198235 0.0241414 0.0296489 0.0179078 -0.00370249 -0.0189664 -0.0182962 -0.0104176 0.00990634 0.0170073 
0.0160632 0.00101212 -0.0171617 -0.0176519 -0.00231439 0.0159134 0.0167592 -0.00131531 -0.0147097 -0.0108521 
0.00181526 0.00760846 0.00323216 -0.00321698 -0.00638084 -0.00569049 -0.00176897 0.00527786 0.0052591 0.00487025 
-0.00286756 0.000368878 -0.00119658 -0.000637653 -0.000384724 0.0010512 0.00217873 0.00218773 6.49926e-05 -0.00242354 
-0.0018578 0.000473464 0.00206274 -0.000198283 -0.00107266 0.0012164 0.00088717 -0.00275974 -0.00293769 0.000856507 
0.00216933 -0.00272888 -0.00708301 -0.00748372 -0.00576791 -0.00882861 -0.0164423 -0.0199439 -0.0145383 -0.0165177 
-0.0317647 -0.0383656 -0.0380569 -0.0526186 -0.0643559 -0.0682852 -0.087582 -0.104583 -0.121817 -0.153101 
-0.177042 -0.20298 -0.224238 -0.224916 -0.213693 -0.172569 -0.113463 -0.0394537 0.0406048 0.103786 
0.148448 0.155244 0.13441 0.0858927 0.0290497 -0.0247035 -0.0632692 -0.0812083 -0.0830652 -0.068973 
-0.0500461 -0.0227904 0.0028222 0.0298825 0.0436804 0.0448152 0.0237565 -0.00473868 -0.0315697 -0.0363217 
-0.0190723 0.00912907 0.0286619 0.0230284 0.00442219 -0.0178431 -0.0184951 -0.0135473 0.00429214 0.0159092 
0.0154909 0.0054143 -0.0138756 -0.0205249 -0.00601758 0.0142321 0.020166 0.00296959 -0.0160039 -0.0144869 
0.00179809 0.0107602 0.004695 -0.00475589 -0.00738619 -0.00380141 7.45426e-05 0.00606479 0.00461575 0.00677303 
-0.00440647 0.00109614 -0.00183697 -0.00028247 -0.000708519 0.00158745 0.00204647 0.0020513 -0.000470012 -0.00225837 
-0.00148291 0.000710541 0.00150946 -1.81467e-05 -0.000140193 -0.000347208 -0.00149224 -0.000264669 0.00315586 0.00277928 
-0.00142275 -0.0042803 -0.00195506 0.000498698 -0.000190508 -0.00337309 -0.00302876 -0.000178373 -0.00379001 -0.0161181 
-0.0178285 -0.00655307 -0.00540179 -0.0062842 0.00926044 0.0155894 0.0124224 0.0161169 -0.000518019 -0.0289372 
-0.0602967 -0.111086 -0.154446 -0.190788 -0.211367 -0.19641 -0.159538 -0.088614 -0.00731732 0.073871 
0.139847 0.171497 0.174906 0.143057 0.101051 0.0501769 0.0131667 -0.0160182 -0.0308489 -0.0416259 
-0.0459505 -0.045735 -0.0350642 -0.0145577 0.0120367 0.031793 0.0356999 0.0174614 -0.00811529 -0.0295644 
-0.0242583 -0.0050894 0.0218056 0.024034 0.0107858 -0.0137545 -0.0183059 -0.0110515 0.00110562 0.0134533 
0.013861 0.00677675 -0.00794709 -0.0203593 -0.0107401 0.0111716 0.0214014 0.00732937 -0.0147077 -0.0177446 
6.14803e-05 0.0135272 0.00751296 -0.00527514 -0.00895501 -0.00276141 0.00201363 0.00746251 0.0036796 0.00796037 
-0.00587357 0.00187125 -0.00244388 2.14168e-05 -0.000933934 0.00207317 0.0017923 0.00198356 -0.000820286 -0.00214331 
-0.00135991 0.00082768 0.00136785 0.000411572 -0.000483568 -0.00162729 -7.9923e-05 0.00264273 0.000730635 -0.00501097 
-0.00567662 -0.000965898 0.00251814 0.000103235 -0.00395674 -0.00640805 -0.00683386 -0.00907878 -0.0100184 6.56569e-05 
0.0226264 0.0390844 0.0530159 0.0868766 0.123966 0.145907 0.175532 0.19447 0.182388 0.160837 
0.109236 0.0318424 -0.0457789 -0.133274 -0.195712 -0.227494 -0.224374 -0.173634 -0.104333 -0.0145031 
0.0604548 0.113456 0.134468 0.123596 0.100461 0.0671859 0.0481612 0.0309519 0.0272976 0.0142231 
0.00324966 -0.0186479 -0.0293406 -0.0343907 -0.0175662 0.000715885 0.0216421 0.0190081 0.0079332 -0.0152738 
-0.018371 -0.00915399 0.0135093 0.0214857 0.0105098 -0.0115789 -0.0208271 -0.00808723 0.00443392 0.0113408 
0.0107657 0.00375479 -0.00419969 -0.0153011 -0.0135066 0.00651146 0.0212424 0.010609 -0.0126915 -0.0196995 
-0.00244506 0.0151509 0.0108728 -0.00480725 -0.0106147 -0.002365 0.00386601 0.00889063 0.00290219 0.00815486 
-0.00711546 0.00261968 -0.0029679 0.000232487 -0.00104752 0.00237503 0.00153256 0.00200873 -0.00108335 -0.00208092 
-0.00119097 0.00101909 0.00134531 0.000381275 -0.00139753 -0.00152422 0.00185841 0.00187513 -0.00286416 -0.00332946 
0.00342559 0.00581013 3.31025e-05 -0.00619402 -0.00574969 -0.000979531 0.00568798 0.0151509 0.031712 0.053346 
0.0742709 0.0988669 0.146901 0.208882 0.260821 0.317545 0.378881 0.405207 0.407886 0.384361 