# vtk DataFile Version 2.0
Titre
ASCII
DATASET STRUCTURED_POINTS
DIMENSIONS 100 100 1
ORIGIN 0.0 0.0 0.0
SPACING 0.1 0.1 0.0
POINT_DATA 10000 
SCALARS rho float
LOOKUP_TABLE default
0.00627252 0.00583256 0.0055436 0.00828498 -0.0038011 -0.0057104 -0.0132313 -0.00444014 0.00231875 0.00972389 
0.00632393 -4.84077e-06 -0.00445088 -0.0027217 0.000630158 0.00147023 -0.000117166 -0.000939991 -0.000198171 0.000392479 
2.42425e-05 -0.000275425 6.35126e-06 0.000181415 -2.49555e-05 -0.000109528 3.64742e-05 6.11013e-05 -3.25247e-05 -2.37249e-05 
2.542e-05 4.20004e-06 -1.3854e-05 3.99846e-06 4.79679e-06 -4.10661e-06 9.93573e-08 1.72916e-06 -1.06642e-06 -2.48912e-08 
4.4061e-07 -2.94734e-07 4.69962e-08 7.25078e-08 -7.27123e-08 3.25366e-08 -2.08766e-09 -8.92101e-09 8.22628e-09 -4.36116e-09 
1.36465e-09 5.05711e-11 -4.23662e-10 3.65791e-10 -2.18077e-10 1.04647e-10 -4.15534e-11 1.31123e-11 -2.60826e-12 -3.82268e-13 
8.27099e-13 -4.81158e-13 5.70724e-13 4.95914e-13 1.68351e-12 3.93326e-12 9.21036e-12 2.14747e-11 4.67141e-11 1.03537e-10 
2.07962e-10 4.33864e-10 7.76619e-10 1.49046e-09 2.1498e-09 3.50659e-09 2.18439e-09 1.79973e-10 -1.92246e-08 -5.05156e-08 
-1.43486e-07 -2.81715e-07 -4.55416e-07 -6.27026e-07 3.7187e-07 2.65449e-06 1.42504e-05 3.70446e-05 0.000103222 0.000231709 
0.000495659 0.000983917 0.00170699 0.00278914 0.00380021 0.00424384 0.00393499 0.0010819 0.00119149 -0.000491676 
0.00130769 -0.00902254 -0.000752593 -0.0202968 -0.0144665 -0.014395 0.00423175 0.0160378 0.0158522 0.00383389 
-0.00919955 -0.00914079 -0.000844937 0.00575851 0.00328383 -0.00183659 -0.00272608 0.000135947 0.00132648 1.60518e-05 
-0.000705706 6.40763e-05 0.00039687 -0.000131096 -0.00023705 0.000140927 0.000124439 -0.000119111 -4.46626e-05 8.33103e-05 
-1.58099e-06 -4.47604e-05 1.85684e-05 1.47339e-05 -1.60149e-05 1.08258e-06 6.80434e-06 -4.39544e-06 -2.81788e-07 2.03571e-06 
-1.25131e-06 6.54694e-08 4.37112e-07 -3.54633e-07 1.1637e-07 3.27753e-08 -6.71381e-08 4.54885e-08 -1.71978e-08 6.77312e-10 
4.63699e-09 -4.33839e-09 2.58604e-09 -1.15097e-09 3.62495e-10 -3.79525e-11 -5.28404e-11 5.5568e-11 -3.72356e-11 2.07687e-11 
-1.02719e-11 4.96645e-12 -1.69066e-12 1.86606e-12 1.92317e-12 5.5136e-12 1.25473e-11 2.96513e-11 6.98451e-11 1.64047e-10 
3.84456e-10 8.88918e-10 2.03389e-09 4.53594e-09 9.91531e-09 2.08357e-08 4.24234e-08 8.14899e-08 1.48614e-07 2.46207e-07 
3.6273e-07 4.10493e-07 1.54117e-07 -9.52915e-07 -4.22105e-06 -1.15834e-05 -2.78986e-05 -5.71646e-05 -0.000110581 -0.000186186 
-0.000277423 -0.000320983 -0.000138737 0.000504974 0.00206708 0.00444668 0.00670817 0.00710489 0.00240167 -0.0012954 
-0.00903558 0.0100823 -0.00624884 -0.00283112 -0.000253081 0.00259283 0.009138 -0.00135177 -0.00679595 -0.0093348 
0.000969334 0.00900244 0.00715855 -0.0022127 -0.00675979 -0.00232538 0.00313176 0.00253496 -0.00103178 -0.00151052 
0.000378987 0.00069949 -0.000324322 -0.000292343 0.000323285 9.09206e-05 -0.000270586 1.83608e-05 0.000181501 -6.98274e-05 
-8.96481e-05 7.48515e-05 2.09342e-05 -5.01261e-05 1.27511e-05 1.8911e-05 -1.65534e-05 6.55993e-07 7.17552e-06 -4.92922e-06 
2.5655e-07 1.87279e-06 -1.48179e-06 3.95374e-07 2.52426e-07 -3.50438e-07 2.01049e-07 -4.94831e-08 -2.45731e-08 3.77247e-08 
-2.59933e-08 1.20462e-08 -3.3759e-09 -2.9356e-10 1.17562e-09 -9.96005e-10 6.13998e-10 -3.18706e-10 1.46582e-10 -6.12666e-11 
2.34317e-11 -8.69011e-12 2.07827e-12 -2.77152e-12 -4.36176e-12 -1.13708e-11 -2.6739e-11 -6.21593e-11 -1.40828e-10 -3.10966e-10 
-6.67028e-10 -1.38339e-09 -2.75696e-09 -5.22322e-09 -9.25946e-09 -1.48585e-08 -2.00652e-08 -1.69764e-08 1.64025e-08 1.3408e-07 
4.51526e-07 1.20087e-06 2.80876e-06 6.01712e-06 1.20953e-05 2.30175e-05 4.22759e-05 7.44147e-05 0.000127099 0.000203768 
0.000301833 0.000387015 0.000384407 0.000239982 -1.36722e-05 0.000191903 0.00170467 0.00487109 0.0077649 0.00315638 
0.01312 0.00493372 -0.0140608 -0.00548939 -0.0146674 -0.00289006 -0.00278285 0.00249577 0.00815458 0.00945316 
0.00455803 -0.00641086 -0.0104223 -0.00367754 0.00621275 0.00689333 -0.000519643 -0.00486065 -0.00154441 0.00228908 
0.00122247 -0.00101289 -0.000479772 0.000575885 1.79798e-07 -0.000396148 0.000210184 0.000240384 -0.000257565 -8.87923e-05 
0.0002118 -2.19194e-05 -0.00012277 6.70722e-05 3.74249e-05 -5.54416e-05 1.08845e-05 2.14161e-05 -1.8469e-05 2.02219e-06 
6.94702e-06 -5.834e-06 1.3946e-06 1.31239e-06 -1.5949e-06 8.01841e-07 -8.15337e-08 -2.17819e-07 2.19163e-07 -1.22227e-07 
3.94772e-08 2.07689e-09 -1.37485e-08 1.20927e-08 -7.3787e-09 3.61138e-09 -1.45457e-09 4.58461e-10 -8.26409e-11 -2.42557e-11 
3.68772e-11 -2.62176e-11 1.46279e-11 -7.56938e-12 2.87508e-12 -2.49716e-12 -2.17801e-12 -8.15255e-12 -2.40578e-11 -7.36937e-11 
-2.1933e-10 -6.29228e-10 -1.73106e-09 -4.56114e-09 -1.15048e-08 -2.7774e-08 -6.41218e-08 -1.41437e-07 -2.97541e-07 -5.96011e-07 
-1.13458e-06 -2.05106e-06 -3.52494e-06 -5.78956e-06 -9.19842e-06 -1.43612e-05 -2.23764e-05 -3.4151e-05 -4.79302e-05 -4.9194e-05 
4.90998e-06 0.000209093 0.000700854 0.00156458 0.00264471 0.00327458 0.00269247 0.00114958 0.00144412 0.0075502 
-0.00557233 -0.0189264 -0.00879617 -0.00581263 0.00136372 0.00792645 0.00842117 0.00625302 9.77248e-05 -0.00863304 
-0.00913197 -0.00155806 0.00977913 0.00999235 -0.000745434 -0.00968376 -0.00549629 0.00420422 0.0057787 -0.00054789 
-0.00351469 -0.000355525 0.00165318 4.94758e-05 -0.000675188 0.00032599 0.000199504 -0.000456381 6.62043e-05 0.000375944 
-0.000205263 -0.000196591 0.000224225 2.68751e-05 -0.000150214 6.17682e-05 4.94914e-05 -6.1928e-05 1.31482e-05 2.18838e-05 
-2.12914e-05 5.28489e-06 5.46056e-06 -6.49868e-06 2.96082e-06 1.46189e-07 -1.26622e-06 1.04548e-06 -4.71024e-07 6.17428e-08 
1.01067e-07 -1.13186e-07 7.40474e-08 -3.56177e-08 1.22997e-08 -1.83347e-09 -1.46176e-09 1.78229e-09 -1.27027e-09 7.38836e-10 
-3.82069e-10 1.83106e-10 -8.17842e-11 3.79684e-11 -9.65652e-12 1.94901e-11 3.00886e-11 7.92661e-11 1.85136e-10 4.32205e-10 
9.87387e-10 2.20819e-09 4.81575e-09 1.02e-08 2.08747e-08 4.10147e-08 7.67217e-08 1.35065e-07 2.19931e-07 3.21718e-07 
3.98209e-07 3.49295e-07 2.07868e-09 -8.54933e-07 -2.34746e-06 -4.37142e-06 -6.85598e-06 -1.17547e-05 -2.8688e-05 -8.61128e-05 
-0.000241661 -0.000572702 -0.00110197 -0.00163092 -0.00157034 -6.73291e-05 0.0029714 0.00534918 0.00260232 -0.00591623 
-0.00719662 0.0130273 -0.00478192 0.0050794 -0.00822507 -0.000962329 -0.00622458 -0.00356698 -0.00397163 0.000196498 
0.0070979 0.00692452 -0.00109957 -0.0106141 -0.00718185 0.00535156 0.0109396 0.00183175 -0.00784478 -0.00485749 
0.00357412 0.00393744 -0.00125266 -0.00202731 0.000599284 0.000599041 -0.000495164 0.000177353 0.000360023 -0.000487504 
-0.000111848 0.000483568 -0.000126165 -0.000293549 0.000228727 6.71815e-05 -0.000174807 6.49874e-05 5.47403e-05 -7.01857e-05 
2.12275e-05 1.84971e-05 -2.38674e-05 1.04411e-05 1.8449e-06 -5.89734e-06 4.3235e-06 -1.51426e-06 -2.57521e-07 7.801e-07 
-6.32618e-07 3.32027e-07 -1.10882e-07 3.44312e-09 2.90721e-08 -2.83524e-08 1.88652e-08 -1.03881e-08 5.03758e-09 -2.21618e-09 
9.00539e-10 -3.43172e-10 1.23902e-10 -4.52502e-11 1.2179e-11 -1.44287e-11 -1.87289e-11 -5.052e-11 -1.11879e-10 -2.44127e-10 
-5.03058e-10 -9.71081e-10 -1.70491e-09 -2.5519e-09 -2.59414e-09 1.25767e-09 1.74169e-08 6.59013e-08 1.89285e-07 4.68649e-07 
1.04058e-06 2.10286e-06 3.88922e-06 6.61179e-06 1.04756e-05 1.61691e-05 2.67855e-05 5.27037e-05 0.000120295 0.000281191 
0.000607751 0.00114712 0.00180736 0.00221669 0.00175747 0.000119248 -0.00153619 -0.000141347 0.00608136 0.00964279 
0.0179895 -0.00561067 -0.00978891 -0.00347511 -0.00517366 0.0134378 0.00660165 0.0107164 0.00271731 0.00261245 
-0.00166018 -0.00589429 -0.00515506 0.00277402 0.00945516 0.00319303 -0.00884065 -0.00933264 0.00335533 0.00992295 
0.00150987 -0.00669046 -0.00272455 0.00341498 0.00171511 -0.00147742 -0.000392576 0.000473749 -0.000396418 0.000128811 
0.000562716 -0.00049157 -0.000313786 0.000570811 -4.39907e-05 -0.000379939 0.000242499 9.08829e-05 -0.000200103 8.27275e-05 
4.90095e-05 -7.8378e-05 3.58735e-05 8.53672e-06 -2.33179e-05 1.60192e-05 -4.12677e-06 -2.8105e-06 4.16321e-06 -2.79855e-06 
1.1277e-06 -1.03756e-07 -2.73311e-07 2.94612e-07 -2.001e-07 1.06806e-07 -4.69984e-08 1.67146e-08 -4.12492e-09 -1.76323e-11 
8.65829e-10 -7.28015e-10 4.41095e-10 -2.29721e-10 1.05106e-10 -5.14526e-11 5.17137e-12 -4.20334e-11 -8.91412e-11 -2.39428e-10 
-6.16103e-10 -1.56861e-09 -3.91284e-09 -9.52134e-09 -2.25001e-08 -5.14171e-08 -1.13142e-07 -2.38684e-07 -4.8051e-07 -9.18875e-07 
-1.6628e-06 -2.84596e-06 -4.64796e-06 -7.46794e-06 -1.25985e-05 -2.41088e-05 -5.29388e-05 -0.000123658 -0.000281297 -0.00058833 
-0.00109145 -0.00173648 -0.00224575 -0.00207815 -0.000726801 0.00146564 0.00250342 -0.000124137 -0.00456562 -0.000361088 
-0.0149659 -0.026857 -0.00831686 -0.00575442 0.000806015 -0.000278901 -0.0129737 -0.0101636 -0.0108326 -0.00199739 
-0.000512805 0.00307665 0.00586191 0.00469618 -0.002952 -0.00759686 2.2762e-05 0.00987686 0.0053569 -0.00818913 
-0.00901176 0.00369696 0.0082907 -0.000589467 -0.00529882 -0.000202672 0.0024367 -5.19168e-05 -0.000492323 0.000213852 
-0.000553867 4.05152e-05 0.000829755 -0.000463264 -0.000527136 0.000656764 1.67873e-05 -0.000459053 0.000282558 8.69437e-05 
-0.000223927 0.000118857 2.49394e-05 -7.95624e-05 5.43162e-05 -1.00277e-05 -1.51556e-05 1.79555e-05 -1.03943e-05 2.74107e-06 
1.28379e-06 -2.21757e-06 1.70835e-06 -9.3605e-07 3.78624e-07 -9.04421e-08 -1.8679e-08 4.13803e-08 -3.39073e-08 2.13802e-08 
-1.17421e-08 5.8958e-09 -2.77547e-09 1.24697e-09 -5.32474e-10 2.36413e-10 -5.90218e-11 1.15219e-10 1.84486e-10 4.86743e-10 
1.14786e-09 2.68152e-09 6.09681e-09 1.3481e-08 2.88843e-08 5.97524e-08 1.18903e-07 2.26882e-07 4.14657e-07 7.29025e-07 
1.25371e-06 2.19174e-06 4.13499e-06 8.80492e-06 2.07812e-05 5.08894e-05 0.000121488 0.000271842 0.000556856 0.00102513 
0.00165931 0.00228069 0.00248509 0.00177973 0.000107422 -0.00141362 -0.000621616 0.00298216 0.00392257 -0.00603262 
-0.00458482 0.0178042 0.0161027 0.0173792 0.00847404 0.00722409 0.0060192 0.0163941 0.0124162 0.00838843 
-0.00183683 -0.00355521 -0.0050399 -0.00636459 -0.00479728 0.00283134 0.00665293 -0.00122309 -0.00865019 -0.00084321 
0.0105961 0.00487337 -0.00883863 -0.00672832 0.00537962 0.00542569 -0.00269928 -0.00285527 0.0010835 0.000724459 
4.09955e-05 0.000263731 -0.000864605 -0.000168939 0.00114054 -0.000425917 -0.000734753 0.000771054 2.50743e-05 -0.000526845 
0.000362593 3.71968e-05 -0.000232072 0.000169716 -2.53388e-05 -6.05587e-05 6.61126e-05 -3.36833e-05 3.31748e-06 1.06182e-05 
-1.15687e-05 7.33796e-06 -3.09729e-06 5.68177e-07 4.37058e-07 -6.02372e-07 4.6055e-07 -2.79552e-07 1.4736e-07 -7.02079e-08 
3.09768e-08 -1.29024e-08 5.16876e-09 -2.03409e-09 7.97996e-10 -3.30328e-10 1.09818e-10 -1.12268e-10 -1.17104e-10 -3.45364e-10 
-7.76423e-10 -1.75713e-09 -3.81847e-09 -8.01635e-09 -1.62257e-08 -3.17407e-08 -6.05253e-08 -1.14859e-07 -2.25232e-07 -4.7804e-07 
-1.12541e-06 -2.87506e-06 -7.57888e-06 -1.96904e-05 -4.89504e-05 -0.000114467 -0.00024902 -0.000499197 -0.000911861 -0.00149389 
-0.00214063 -0.00256594 -0.00233772 -0.00117203 0.000504203 0.00124262 -0.000311968 -0.00246734 0.000342743 0.00744136 
0.0142425 -0.00396432 -0.0111867 -0.0192285 -0.0205337 -0.0111243 -0.0104607 -0.00882981 -0.0178388 -0.0118211 
-0.0026752 0.00922679 0.00937259 0.00676488 0.00574978 0.00364575 -0.00410492 -0.00744603 0.00097628 0.0070608 
-0.00205278 -0.00981424 0.000862987 0.0113554 0.00158807 -0.00952078 -0.00237205 0.0060941 0.00155732 -0.00280225 
-0.000657297 0.00040171 0.000608538 0.000711751 -0.00119136 -0.000480396 0.00148725 -0.00043915 -0.000911965 0.000945426 
-6.25464e-05 -0.000557065 0.000481692 -8.08715e-05 -0.000192456 0.000212636 -9.88394e-05 -7.96371e-06 5.21365e-05 -4.71907e-05 
2.50545e-05 -6.4593e-06 -2.8584e-06 5.15368e-06 -4.21299e-06 2.57507e-06 -1.29225e-06 5.41932e-07 -1.82746e-07 4.03771e-08 
3.64761e-09 -1.11464e-08 8.52751e-09 -4.88835e-09 2.40191e-09 -1.05343e-09 4.24721e-10 -1.41268e-10 7.69317e-11 5.27354e-11 
1.5768e-10 3.51367e-10 7.9847e-10 1.87483e-09 4.70759e-09 1.28426e-08 3.74267e-08 1.12418e-07 3.36383e-07 9.79831e-07 
2.74147e-06 7.31299e-06 1.85133e-05 4.43169e-05 9.99309e-05 0.000211261 0.000416077 0.000756695 0.00125472 0.00186098 
0.0023937 0.00252292 0.00191016 0.00057761 -0.000688127 -0.000587951 0.00105014 0.00142175 -0.00234986 -0.00292014 
-0.0117974 -0.0217992 -0.00693556 -0.000101972 0.01677 0.0199755 0.0138452 0.0106567 0.00901544 0.0150457 
0.00696817 -0.00689347 -0.0186118 -0.0141608 -0.00516205 -0.00166985 -9.63651e-05 0.00673093 0.0086549 -0.00151818 
-0.00718987 0.00268184 0.00724539 -0.00544687 -0.00971654 0.00531896 0.010077 -0.00378082 -0.00756254 0.0023178 
0.00406218 -0.000859425 -0.00152062 -0.000645164 0.000851898 0.00143343 -0.00150662 -0.000808417 0.00188961 -0.000595162 
-0.00100441 0.0011902 -0.000300298 -0.000483582 0.000598575 -0.000272555 -6.21257e-05 0.000195842 -0.000160864 7.02438e-05 
-9.45902e-07 -2.79102e-05 2.88483e-05 -1.91988e-05 9.53928e-06 -3.37514e-06 4.50213e-07 5.25625e-07 -6.29032e-07 4.63508e-07 
-2.81108e-07 1.51888e-07 -7.57222e-08 3.54926e-08 -1.58074e-08 6.72901e-09 -2.7378e-09 1.0752e-09 -3.85472e-10 1.53512e-10 
-6.58055e-11 -1.90226e-10 -9.75916e-10 -3.72001e-09 -1.27777e-08 -4.08147e-08 -1.23264e-07 -3.54714e-07 -9.76192e-07 -2.57263e-06 
-6.49126e-06 -1.5661e-05 -3.6046e-05 -7.88881e-05 -0.00016344 -0.000318667 -0.000580141 -0.000975613 -0.00149261 -0.00203038 
-0.00236478 -0.00219411 -0.00134497 -0.000105573 0.000648386 0.000126919 -0.000923338 -0.00018201 0.00158611 -0.00360339 
-0.00610493 0.0126264 0.0188093 0.018184 0.00908602 -0.00769712 -0.0160914 -0.0124463 -0.00795808 -0.0056514 
-0.00865197 0.00134893 0.0178844 0.0260291 0.0132901 -0.0029703 -0.00639223 -0.00399901 -0.00789273 -0.00755045 
0.00459152 0.0090264 -0.00281377 -0.00548241 0.00704624 0.00490856 -0.0103962 -0.00535291 0.0101604 0.00426532 
-0.00743288 -0.00234618 0.0038918 0.00141611 -0.00124869 -0.0019041 0.000770926 0.00228371 -0.00191181 -0.00101762 
0.00236103 -0.00100875 -0.000891 0.00144362 -0.000719278 -0.000201208 0.000597856 -0.000473812 0.000166895 5.98062e-05 
-0.000137689 0.000116626 -6.49704e-05 2.25972e-05 1.98399e-07 -7.95892e-06 8.07973e-06 -5.75424e-06 3.43175e-06 -1.82389e-06 
8.92961e-07 -4.11989e-07 1.82407e-07 -7.86747e-08 3.34311e-08 -1.4076e-08 5.87992e-09 -2.39657e-09 1.03247e-09 -1.83787e-10 
7.42035e-10 1.76544e-09 5.37856e-09 1.54416e-08 4.33871e-08 1.18666e-07 3.15657e-07 8.1536e-07 2.04137e-06 4.94299e-06 
1.15459e-05 2.59357e-05 5.582e-05 0.00011459 0.000223118 0.000409151 0.000700133 0.0011041 0.00157642 0.0019837 
0.00210204 0.00171019 0.000807065 -0.000169073 -0.00047671 0.00013358 0.000612823 -0.000159956 1.71889e-07 0.00327347 
0.0106001 0.00654733 -0.00404178 -0.0162389 -0.0229957 -0.0169267 -0.00203634 0.00979921 0.0079318 0.00264847 
-0.000250634 0.00118824 -0.00911189 -0.0250058 -0.0261579 -0.00341315 0.0170714 0.014247 0.0034511 0.00416709 
0.00328761 -0.0088848 -0.00992363 0.00508633 0.0058391 -0.00648486 -0.000177321 0.010616 -0.00279668 -0.0118698 
0.00393995 0.00929512 -0.00366176 -0.00536131 0.00193028 0.00305755 -0.000208364 -0.00312822 0.000606344 0.00316006 
-0.00259201 -0.000890574 0.00282081 -0.0017665 -0.000364543 0.00149295 -0.00122473 0.000357611 0.000303806 -0.000498871 
0.000375661 -0.000168568 1.65507e-05 5.12778e-05 -6.09659e-05 4.60039e-05 -2.75932e-05 1.40007e-05 -6.12169e-06 2.28535e-06 
-6.90468e-07 1.35157e-07 1.26917e-08 -3.04271e-08 1.95144e-08 -8.92895e-09 3.12525e-09 -8.38892e-10 -1.85743e-10 -4.54088e-10 
-1.71897e-09 -4.43304e-09 -1.22481e-08 -3.27095e-08 -8.59001e-08 -2.20686e-07 -5.53794e-07 -1.35414e-06 -3.2186e-06 -7.41566e-06 
-1.65104e-05 -3.5393e-05 -7.27426e-05 -0.000142611 -0.000265024 -0.000463172 -0.000753409 -0.00112472 -0.00151011 -0.00176729 
-0.00170614 -0.00120374 -0.000386943 0.000283766 0.000305696 -0.000208757 -0.000385984 -5.26328e-05 -0.000692792 5.63219e-05 
-0.00316581 -0.0156161 -0.0128742 -0.0081054 0.00904972 0.0217056 0.0226186 0.010589 -0.00238547 -0.00247642 
0.00295815 0.00510002 0.00267738 0.0107422 0.0233636 0.0167654 -0.0130796 -0.0302985 -0.013978 0.00610792 
0.00361659 0.00037001 0.0105219 0.00730871 -0.00999378 -0.00667613 0.00677236 -0.00151663 -0.00653436 0.00894526 
0.00603879 -0.0117887 -0.0034571 0.010047 0.000897402 -0.00619145 -0.000588486 0.0039346 0.00110268 -0.00437355 
0.000738751 0.0039147 -0.00371998 -8.52026e-05 0.00294768 -0.00276206 0.000769889 0.000945385 -0.00144085 0.00100786 
-0.000334088 -0.000131791 0.000298549 -0.000269743 0.000173117 -8.51713e-05 3.00393e-05 -3.79886e-06 -5.06191e-06 6.02204e-06 
-4.47512e-06 2.73715e-06 -1.48518e-06 7.37925e-07 -3.41006e-07 1.47709e-07 -6.00773e-08 2.3108e-08 -7.88199e-09 3.69503e-09 
1.79784e-09 7.34485e-09 1.88374e-08 4.92345e-08 1.25634e-07 3.1368e-07 7.6437e-07 1.81432e-06 4.18398e-06 9.34834e-06 
2.01709e-05 4.18714e-05 8.32427e-05 0.000157628 0.000282379 0.000474447 0.000739195 0.00105135 0.00133422 0.00145667 
0.00127916 0.000765887 0.000109596 -0.000292906 -0.000166728 0.000223958 0.000294846 0.000116438 -0.000144135 -0.00280887 
-0.0074774 0.00120866 0.0111029 0.0179245 0.0179289 0.00237387 -0.015763 -0.0243961 -0.017078 -0.00415975 
-0.00149643 -0.00529482 -0.00452202 0.00134326 -0.00341542 -0.0135566 -0.00306386 0.0268556 0.0327974 0.000698735 
-0.0216758 -0.00793225 0.00244804 -0.00775392 -0.00224095 0.014826 0.00460474 -0.0102303 0.000786233 0.00294314 
-0.00845456 0.00339808 0.0114166 -0.00760328 -0.00862041 0.00800955 0.00440516 -0.0055241 -0.00290261 0.0044511 
0.00224812 -0.0058347 0.0016698 0.00414431 -0.0052273 0.00177447 0.00206064 -0.00338223 0.0023122 -0.000497955 
-0.000750857 0.00110469 -0.000872176 0.00047099 -0.000151655 -2.04462e-05 7.86128e-05 -7.72489e-05 5.60401e-05 -3.46535e-05 
1.92983e-05 -9.96906e-06 4.8667e-06 -2.27256e-06 1.02227e-06 -4.44267e-07 1.86346e-07 -7.54454e-08 2.8719e-08 -1.19777e-08 
4.66589e-10 -1.01276e-08 -2.29986e-08 -6.0353e-08 -1.51914e-07 -3.73869e-07 -8.97015e-07 -2.09259e-06 -4.73676e-06 -1.03725e-05 
-2.1902e-05 -4.44179e-05 -8.61102e-05 -0.000158654 -0.000275803 -0.00044817 -0.000672342 -0.000915207 -0.0011016 -0.0011236 
-0.000893198 -0.000435527 4.43854e-05 0.000248038 6.58892e-05 -0.000214294 -0.000212278 5.61163e-05 0.000659672 0.000892797 
0.0047105 0.0107069 0.00699358 -0.00191447 -0.0152044 -0.0221873 -0.012799 0.00747011 0.0225825 0.0206527 
0.00804804 0.00186827 0.00206827 -0.00298536 -0.0124742 -0.00848733 0.00409723 -0.00388643 -0.0280521 -0.0210175 
0.0198403 0.0316445 0.000158895 -0.0121197 0.00498772 -0.00117791 -0.016392 0.00229283 0.0153236 -0.00260242 
-0.00441572 0.00383673 -0.00722239 -0.00189378 0.0127999 -0.00277647 -0.010812 0.00518661 0.00637482 -0.00430182 
-0.00480328 0.00523042 0.00273109 -0.00754052 0.00394628 0.00295387 -0.00633347 0.00457978 -0.000594747 -0.00234767 
0.00306333 -0.00220434 0.000927245 1.9082e-05 -0.000450779 0.000507624 -0.000393793 0.000250304 -0.000138469 6.88097e-05 
-3.14208e-05 1.34815e-05 -5.58378e-06 2.30639e-06 -9.7957e-07 4.33753e-07 -1.9794e-07 9.08801e-08 -4.01482e-08 1.87041e-08 
-3.55338e-09 1.2211e-08 2.39142e-08 6.44981e-08 1.6053e-07 3.93256e-07 9.34832e-07 2.15955e-06 4.82985e-06 1.04333e-05 
2.169e-05 4.32223e-05 8.21488e-05 0.000148008 0.000250842 0.000395906 0.000574118 0.000750452 0.000858807 0.000818416 
0.000583816 0.000213126 -0.000110034 -0.00018399 -5.10978e-07 0.000179439 9.79728e-05 -0.00020899 -0.000373135 0.00128147 
0.0029177 -0.00486071 -0.0110781 -0.0154455 -0.00998177 0.00479317 0.0192429 0.0186989 0.0009739 -0.0180676 
-0.0209776 -0.00880428 0.00111782 0.00479665 0.0129052 0.0228729 0.0144384 -0.00585304 -0.00304777 0.0172154 
0.0045634 -0.0329558 -0.025526 0.0185471 0.0194036 -0.00917005 0.0013159 0.0143759 -0.0122895 -0.0161481 
0.0116731 0.00783013 -0.0044409 0.00228497 -0.00543529 -0.00492253 0.0118633 0.000500076 -0.0107606 0.00285982 
0.0071266 -0.00326044 -0.00633781 0.00692421 0.0017056 -0.00881498 0.00765407 -0.000884227 -0.00506773 0.0066213 
-0.00447627 0.00122894 0.00112703 -0.0020254 0.00186503 -0.00127646 0.000697962 -0.000301996 9.01779e-05 -1.94411e-06 
-2.24212e-05 2.14819e-05 -1.42765e-05 7.8911e-06 -3.82759e-06 1.66186e-06 -6.48687e-07 2.25536e-07 -6.85258e-08 1.52673e-08 
-5.6492e-09 -9.5084e-09 -2.34262e-08 -6.13844e-08 -1.54195e-07 -3.7499e-07 -8.89937e-07 -2.04197e-06 -4.53404e-06 -9.7006e-06 
-1.99377e-05 -3.91919e-05 -7.33052e-05 -0.000129622 -0.000214914 -0.000330543 -0.000464742 -0.000584877 -0.000637444 -0.000566912 
-0.000357748 -7.89599e-05 0.000122163 0.000122724 -3.23279e-05 -0.000128795 -1.71232e-05 0.000144247 -0.000180259 -0.00116101 
-0.00434813 -0.006203 -0.00174998 0.00640748 0.0173649 0.0195742 0.00831276 -0.0107812 -0.0199424 -0.00870032 
0.0113236 0.0185844 0.00809996 -0.00369335 -0.00889958 -0.0165564 -0.0229967 -0.00707228 0.0203166 0.0169545 
-0.00852038 0.000699814 0.0294876 0.00720541 -0.0343688 -0.0134928 0.0201812 -0.00230635 -0.0108058 0.0204976 
0.00669361 -0.0240667 -0.00179047 0.0134018 -0.000220679 0.000422278 -0.00471204 -0.00549655 0.0103216 0.00151335 
-0.00932042 0.00135365 0.00727571 -0.00297552 -0.00733529 0.00989016 -0.00211927 -0.00755514 0.0110267 -0.00733951 
0.000799802 0.00413694 -0.0057568 0.00480455 -0.00286327 0.0011261 -5.5981e-05 -0.000396949 0.000469285 -0.000377892 
0.000253251 -0.000150577 8.18081e-05 -4.12515e-05 1.94681e-05 -8.63359e-06 3.60201e-06 -1.41237e-06 5.1967e-07 -1.77102e-07 
5.93403e-08 -8.04985e-09 2.43404e-08 5.44114e-08 1.34773e-07 3.33397e-07 7.84509e-07 1.80001e-06 3.97441e-06 8.45063e-06 
1.72191e-05 3.34876e-05 6.18158e-05 0.000107578 0.000174975 0.000262948 0.000359358 0.000436375 0.00045349 0.000375515 
0.000204908 7.51366e-06 -0.00010776 -7.45779e-05 4.20956e-05 8.41005e-05 -5.0506e-06 -3.38252e-05 0.000177463 -0.000473274 
-0.000918056 0.00473759 0.00899557 0.0105491 0.00444771 -0.00935409 -0.0203579 -0.0169965 0.00179884 0.0189835 
0.0161501 -0.00271687 -0.014807 -0.00887961 0.00110699 0.0045275 0.00933879 0.0121868 -0.0075643 -0.0341305 
-0.0205453 0.016023 0.0088314 -0.0187742 0.00624853 0.0346725 -0.00406006 -0.0281045 0.0088727 0.0069895 
-0.0216474 0.0110532 0.0252863 -0.018359 -0.0155527 0.012692 0.00531133 -0.000733103 -0.00541071 -0.00399888 
0.00884463 0.000526657 -0.00686685 0.000229559 0.00756966 -0.00419951 -0.00670966 0.0131661 -0.00938425 -0.000515528 
0.00894001 -0.0115905 0.00903479 -0.0043299 0.000220439 0.00210062 -0.00275886 0.0024324 -0.00176088 0.00112106 
-0.000650645 0.000352285 -0.00018077 8.8793e-05 -4.19507e-05 1.90735e-05 -8.3251e-06 3.47439e-06 -1.38098e-06 5.19856e-07 
-1.8884e-07 5.80279e-08 -4.00497e-08 -3.48858e-08 -1.18037e-07 -2.71318e-07 -6.54947e-07 -1.48992e-06 -3.28977e-06 -6.95986e-06 
-1.40957e-05 -2.7181e-05 -4.96333e-05 -8.52094e-05 -0.000136277 -0.000200567 -0.000267036 -0.000313495 -0.000310924 -0.000238863 
-0.000108572 2.42771e-05 8.42376e-05 4.12677e-05 -4.02782e-05 -5.48879e-05 2.81415e-06 1.36584e-05 7.73357e-05 0.000711381 
0.00276919 0.00318943 -0.000440185 -0.00753148 -0.0155781 -0.0167695 -0.00605438 0.0103421 0.0167074 0.00324794 
-0.0181532 -0.0235155 -0.00699294 0.0106575 0.0121416 0.00680372 0.00596843 0.00188403 -0.00281364 0.0129651 
0.031514 0.00601412 -0.0342598 -0.0163483 0.0195555 -0.00516166 -0.0244585 0.0191628 0.0244792 -0.01919 
-0.00298133 0.0151667 -0.0235996 -0.00587289 0.034046 -0.00599124 -0.0240658 0.00856149 0.0100295 -0.00148563 
-0.00705379 -0.000640723 0.00680982 -0.00135334 -0.00361509 -0.00122928 0.00874981 -0.00798243 -0.00186288 0.0125376 
-0.0163344 0.0120097 -0.00359018 -0.00400882 0.0080931 -0.00862126 0.0069983 -0.00474012 0.00278777 -0.00145918 
0.000695074 -0.000310042 0.000134921 -6.01835e-05 2.84759e-05 -1.42037e-05 7.19139e-06 -3.5514e-06 1.66625e-06 -7.30381e-07 
2.97391e-07 -1.01568e-07 4.34201e-08 3.22907e-08 8.17556e-08 2.22691e-07 5.06831e-07 1.17725e-06 2.58275e-06 5.45933e-06 
1.10037e-05 2.10835e-05 3.81591e-05 6.47597e-05 0.000102058 0.000147423 0.000191624 0.000217894 0.000206389 0.000146373 
5.18612e-05 -3.37249e-05 -6.08631e-05 -2.01932e-05 3.41854e-05 3.57069e-05 -7.50924e-06 -4.21075e-05 -0.000114324 0.000144449 
0.000111601 -0.00339678 -0.00610982 -0.00667145 -0.000770822 0.0111655 0.0216507 0.0199501 0.00466624 -0.00947557 
-0.00452355 0.0168009 0.0291846 0.0165939 -0.00544134 -0.0144483 -0.0132073 -0.0120231 -0.00370935 0.00801727 
-0.00136388 -0.0154712 0.0109778 0.0406023 0.00465315 -0.0335481 0.00202792 0.01989 -0.0234437 -0.0129175 
0.0271975 -0.00180878 -0.00876851 0.0190901 -0.0181595 -0.0200042 0.0336239 0.00498022 -0.0268859 0.00452404 
0.013087 -0.00278577 -0.00849153 0.00430484 0.0026471 -0.0017632 -0.000908651 -0.00268107 0.010349 -0.0140246 
0.00937515 0.00101139 -0.0111936 0.0166693 -0.016506 0.0125585 -0.00749536 0.00326851 -0.000630603 -0.00056808 
0.000847956 -0.000707071 0.000462929 -0.000258025 0.00012622 -5.47992e-05 2.10878e-05 -7.07422e-06 1.96466e-06 -3.69918e-07 
-2.81103e-08 7.89208e-08 -7.61176e-08 2.0134e-08 -9.51579e-08 -1.41442e-07 -3.95007e-07 -8.73492e-07 -1.94394e-06 -4.0922e-06 
-8.23245e-06 -1.56966e-05 -2.82124e-05 -4.74215e-05 -7.37907e-05 -0.000104837 -0.000133318 -0.000147104 -0.000133155 -8.66068e-05 
-2.0839e-05 3.22173e-05 4.15006e-05 7.93853e-06 -2.68038e-05 -2.14478e-05 1.32807e-05 3.42316e-05 -2.77311e-05 -0.000426588 
-0.00162915 -0.00167229 0.000884054 0.00609248 0.0122274 0.0129493 0.00361216 -0.0123895 -0.0217608 -0.0139326 
0.00311333 0.00696645 -0.0111048 -0.0297188 -0.0242688 -0.00218304 0.0110626 0.0110747 0.00668107 -0.00703564 
-0.0230201 -0.0123098 0.00864943 -0.00844777 -0.0255635 0.0164313 0.0389584 -0.0134388 -0.0229394 0.0246473 
0.00170069 -0.029605 0.0104771 0.00976717 -0.00781101 0.0188826 -0.0115449 -0.0263801 0.0292527 0.00996606 
-0.0255128 0.00261984 0.0141142 -0.00534735 -0.00781637 0.00922622 -0.0045386 0.00253354 -0.00245816 -0.000630357 
0.00784376 -0.0156765 0.0198163 -0.0183299 0.0122957 -0.00454639 -0.00211308 0.0061157 -0.00735012 0.0066404 
-0.00504047 0.00335734 -0.00200675 0.00109081 -0.000543789 0.00024996 -0.000106273 4.1848e-05 -1.52689e-05 5.17449e-06 
-1.65058e-06 5.26188e-07 -1.81665e-07 1.06074e-07 -5.14358e-09 1.45252e-07 2.56191e-07 6.41137e-07 1.39152e-06 2.94946e-06 
5.91944e-06 1.12554e-05 2.0124e-05 3.35666e-05 5.16759e-05 7.23613e-05 9.02198e-05 9.6789e-05 8.378e-05 4.95529e-05 
5.32782e-06 -2.6448e-05 -2.70435e-05 -1.54887e-06 1.96683e-05 1.18867e-05 -1.12734e-05 -7.69436e-06 5.65787e-05 -4.18016e-05 
-1.77926e-05 0.00202615 0.00385345 0.00414579 -0.000272804 -0.0101396 -0.0201023 -0.0208229 -0.00807705 0.00809383 
0.0102468 -0.00455075 -0.0153684 -0.00251472 0.0215789 0.0269364 0.010363 -0.00341224 -0.00378524 0.00186173 
0.0153389 0.0269483 0.00705392 -0.0229075 -0.0084189 0.0114237 -0.0197328 -0.0229017 0.0304738 0.0175775 
-0.029713 0.00853715 0.0244103 -0.0244205 -0.00878663 0.0113223 -0.00261837 0.0166508 -0.00863507 -0.0246325 
0.0246372 0.00799619 -0.020385 0.00239312 0.0128266 -0.00866705 -0.00302581 0.00974725 -0.011201 0.0113047 
-0.0110661 0.00937217 -0.00549469 -0.000331457 0.00717973 -0.0135975 0.0180101 -0.019445 0.0179981 -0.014651 
0.0106642 -0.00702604 0.00423013 -0.00234497 0.00120405 -0.000575242 0.000256541 -0.00010698 4.16891e-05 -1.51002e-05 
4.99858e-06 -1.44289e-06 2.99864e-07 -8.47877e-09 -8.67126e-08 -3.36913e-08 -2.1308e-07 -4.22697e-07 -9.70508e-07 -2.04023e-06 
-4.10498e-06 -7.79205e-06 -1.3885e-05 -2.30256e-05 -3.51419e-05 -4.86052e-05 -5.95484e-05 -6.22446e-05 -5.15664e-05 -2.74386e-05 
1.46361e-06 1.99111e-05 1.69935e-05 -1.2976e-06 -1.38095e-05 -6.6687e-06 6.67857e-06 1.46472e-06 8.7667e-06 0.000205151 
0.000861376 0.000994924 -0.000476634 -0.00398845 -0.00853786 -0.00967546 -0.00238181 0.0128631 0.0262469 0.0255429 
0.0115445 0.00230167 0.0121226 0.0278636 0.0224223 -0.00428985 -0.0213405 -0.013383 1.35834e-05 0.00336777 
0.00130177 -0.00665702 -0.0118157 0.0114226 0.0364684 0.00934515 -0.0212023 0.00417903 0.00679233 -0.0295394 
-3.24411e-05 0.0297204 -0.0183031 -0.00993562 0.031564 -0.0090527 -0.0202341 0.00615081 0.00403755 0.013643 
-0.0104434 -0.0156928 0.0188534 0.00171927 -0.0107253 0.00025566 0.0104606 -0.0107616 0.00524128 0.000878493 
-0.00710214 0.0131162 -0.0171156 0.0184463 -0.0186674 0.0195279 -0.0210611 0.0219012 -0.0208351 0.0177774 
-0.0135963 0.00938562 -0.00590007 0.00340693 -0.00182088 0.000906473 -0.00042251 0.00018523 -7.67619e-05 3.02906e-05 
-1.152e-05 4.30612e-06 -1.61795e-06 6.35557e-07 -2.31222e-07 1.52587e-07 8.29528e-08 3.03404e-07 6.371e-07 1.36627e-06 
2.74764e-06 5.21946e-06 9.28521e-06 1.53382e-05 2.3255e-05 3.18405e-05 3.84224e-05 3.92229e-05 3.11369e-05 1.47068e-05 
-3.73628e-06 -1.41503e-05 -1.0367e-05 2.23243e-06 9.44883e-06 3.79164e-06 -4.87941e-06 -6.65212e-06 -2.09138e-05 3.01011e-05 
6.41739e-05 -0.00101869 -0.00226683 -0.00277196 -0.000132864 0.00708473 0.0160953 0.0190494 0.00896588 -0.0104217 
-0.0236693 -0.0198099 -0.00958263 -0.0145937 -0.0339682 -0.0390637 -0.0158555 0.00926509 0.00945513 -0.00441788 
-0.0126291 -0.014337 -0.00821366 -0.00039905 -0.0132759 -0.0231708 0.0128016 0.0366906 -0.00194924 -0.0134099 
0.0145583 -0.00955918 -0.018301 0.0206223 -0.00452672 -0.0178524 0.0269202 0.00374807 -0.0226743 -0.00045344 
0.0103244 0.00899917 -0.0137336 -0.00148059 0.00689989 -0.00048424 0.000332673 -0.00780437 0.0119949 -0.010959 
0.0107145 -0.0126507 0.0121506 -0.00670731 -0.000228426 0.00336568 -0.000872086 -0.00482074 0.00992237 -0.012143 
0.0114157 -0.0089702 0.00614685 -0.00377091 0.00210901 -0.00108958 0.000524775 -0.000236847 0.000100237 -3.95846e-05 
1.44067e-05 -4.71533e-06 1.31542e-06 -2.7582e-07 -9.32065e-10 -6.18065e-09 -9.5223e-08 -1.76241e-07 -4.14853e-07 -8.79856e-07 
-1.78003e-06 -3.38753e-06 -6.0277e-06 -9.93805e-06 -1.50002e-05 -2.03782e-05 -2.42819e-05 -2.42715e-05 -1.8495e-05 -7.62821e-06 
3.90915e-06 9.64459e-06 6.17344e-06 -2.24389e-06 -6.31026e-06 -1.97296e-06 4.08279e-06 4.65725e-06 -8.54765e-06 -9.57368e-05 