# vtk DataFile Version 2.0
Titre
ASCII
DATASET STRUCTURED_POINTS
DIMENSIONS 100 100 1
ORIGIN 0.0 0.0 0.0
SPACING 0.1 0.1 0.0
POINT_DATA 10000 
SCALARS rho float
LOOKUP_TABLE default
0.00159413 0.00231181 3.21749e-05 -0.00289672 -0.00269826 -0.00213596 0.00105574 0.00211927 7.0131e-05 -0.00172121 
-0.00109359 0.000358421 -6.73028e-05 -0.000494724 -0.000332961 0.000666272 -8.78193e-05 -0.00108166 -0.000758462 0.000482508 
0.00067188 -8.26212e-05 -0.000154998 6.3257e-07 0.000202686 0.000160184 -5.02674e-05 -0.000518054 -0.000297796 4.44023e-05 
0.000310814 0.000366575 0.000260609 -0.000146566 -0.000328402 -0.000534922 -0.000476746 -0.000236212 0.000148041 0.000576166 
0.00100806 0.00124503 0.0013645 0.00122483 0.00088722 0.000385333 -0.000291516 -0.000957364 -0.00163297 -0.00211717 
-0.00240835 -0.00242711 -0.00216103 -0.00167537 -0.00095731 -0.000135007 0.00079141 0.00172308 0.0026342 0.00349385 
0.00427141 0.00499019 0.00564779 0.00628399 0.00689878 0.00750948 0.00806115 0.00853882 0.00884627 0.00895551 
0.00877536 0.0082933 0.00747606 0.00638815 0.00508167 0.00367972 0.00232743 0.00112814 0.000186403 -0.000436835 
-0.000756386 -0.000809092 -0.000696161 -0.000508732 -0.000304736 -0.00012606 2.27718e-05 0.000158804 0.00024568 0.00024204 
0.000252257 3.59487e-05 -6.46748e-05 -0.000572921 -0.000631179 -0.000431978 -0.000788442 -6.68142e-05 0.000509308 0.000880152 
-0.000102043 -0.000137314 -0.0025516 6.26577e-05 0.00279083 0.00436984 0.00391662 -0.000359636 -0.00331964 -0.00271403 
0.000941133 0.00117235 -0.000188372 -0.0015465 0.00010253 0.000902287 -0.000464168 -0.000700849 6.72121e-05 0.000619301 
-0.000233123 0.000241025 0.000312263 -9.46603e-05 -0.000167281 0.000220637 -9.91413e-05 -2.41676e-05 0.000327202 0.000119271 
-2.87401e-05 -9.71701e-05 -0.000470874 -0.000516516 -0.000346571 -0.000149894 0.000369106 0.000825391 0.00106185 0.00121128 
0.00083102 0.000321895 -0.000460353 -0.00123625 -0.00184512 -0.00218415 -0.00213703 -0.00169557 -0.000948484 5.39897e-05 
0.0011257 0.002174 0.00306499 0.00370951 0.00406795 0.00410496 0.00384389 0.00330092 0.00254499 0.00159058 
0.000550368 -0.000590852 -0.00171551 -0.00282709 -0.00385292 -0.00475009 -0.00549378 -0.00602731 -0.00634937 -0.00640539 
-0.00622411 -0.00577683 -0.00514811 -0.00432396 -0.00341644 -0.00247921 -0.00160771 -0.000817831 -0.000190414 0.000308944 
0.000667891 0.000927575 0.00107697 0.00107834 0.000910775 0.000599781 0.000180771 -0.000172108 -0.000430842 -0.000555379 
-0.000619534 -0.000404397 -0.00014472 -4.46837e-05 -0.000666426 -0.000818701 -0.00052853 -0.00185581 -0.00203597 0.00175945 
-0.000299903 -0.00181315 -0.00177612 7.72186e-05 -0.000436165 -0.00135629 -0.00351207 -0.00380433 -0.00162174 0.00267254 
0.0019775 -0.00100963 -0.00205675 -4.26467e-05 0.00222287 -0.000306797 -0.000991143 9.07337e-05 0.00100769 -0.000185945 
-0.000119595 0.000647456 -0.000197397 -0.000172215 0.000513857 0.000377203 -0.000189645 0.000491787 0.000132943 -0.000190724 
-0.000101311 -0.000247593 -0.000459961 7.14272e-05 5.92297e-05 0.000388914 0.000541453 0.000329646 6.5667e-05 -0.000319276 
-0.000830244 -0.000908473 -0.000947562 -0.000521493 0.000130367 0.000810378 0.0016238 0.0020514 0.00233985 0.00215345 
0.00164757 0.000871754 -0.00018503 -0.00121402 -0.00232209 -0.0031962 -0.00391315 -0.00434551 -0.00446979 -0.00435981 
-0.00393401 -0.00334791 -0.00254726 -0.00167775 -0.000718334 0.000197725 0.00109914 0.00186697 0.00250735 0.00295249 
0.00320211 0.00325244 0.00308744 0.00275816 0.00231192 0.00181042 0.00130322 0.000857699 0.000502089 0.000267516 
0.000120593 7.15731e-05 0.000101147 0.000162908 0.000187496 0.00013935 -3.4881e-05 -0.000248047 -0.000388336 -0.000501496 
-0.000757108 -0.00126906 -0.00125302 -0.000783825 -0.000576786 -0.00123082 -0.000520651 0.00082436 -0.00342704 -0.000672555 
-0.00131713 -0.00129507 -0.000198557 0.00188387 0.0027405 0.00268603 0.00285285 0.00135985 0.00198069 0.00020965 
-0.0027535 -0.001544 0.000609498 0.00269833 -0.000209446 -0.0018771 0.000376825 0.00104643 -0.00011686 -0.000871974 
0.000937209 5.44765e-05 -0.000403173 0.000449339 0.000479151 -0.000657765 0.000106137 0.000318151 -0.000478285 -0.000181896 
-2.94892e-05 -0.000485718 2.54602e-05 0.000154556 -2.56838e-05 0.000261945 1.66839e-05 -0.00019382 -2.86619e-05 -0.0002367 
0.000127904 0.000349349 0.000575758 0.000818627 0.000689337 0.000432154 -4.25223e-05 -0.000726132 -0.0012696 -0.00184402 
-0.00207843 -0.00208822 -0.00179556 -0.00118572 -0.000443541 0.000500289 0.00138568 0.00227608 0.00295398 0.00348463 
0.0037288 0.00374922 0.00352957 0.00307099 0.00249901 0.00174325 0.000999641 0.000209431 -0.000451928 -0.0010492 
-0.00144482 -0.00169123 -0.00172989 -0.00165485 -0.0014391 -0.00118542 -0.000886947 -0.000619729 -0.000370929 -0.000156651 
4.75938e-05 0.000182783 0.000309543 0.00038227 0.000407241 0.000340825 0.000114984 -0.000281365 -0.000634057 -0.000619245 
-0.00025562 -0.000387268 -0.00116208 -0.00127322 -0.000681754 -0.00101319 -0.00293146 0.00104071 -0.00147936 -0.00140412 
-0.000361221 -0.00117061 -0.000725706 0.00145346 -0.0016063 -0.00178192 -0.00516163 -0.00507973 -0.00188783 -0.00133974 
0.00147826 0.00211784 0.00137073 -0.000471079 -0.00217331 0.000851113 0.00134515 -0.000327115 -0.00106864 0.000830906 
0.000771741 -0.00093812 0.000265344 0.000581687 -0.00051226 -0.000211782 0.00101653 -0.000364778 -0.000305439 0.00024904 
-0.000289311 -0.000282714 0.000429646 -0.000230115 0.000130092 0.000162981 -0.000150335 0.000117816 0.000105998 -5.14928e-05 
0.000241706 -0.000129509 -0.000134875 -0.000330081 -0.000642109 -0.000524388 -0.000646535 -0.00027432 5.95613e-05 0.000502172 
0.00105974 0.00133035 0.00167434 0.00160201 0.00146192 0.00104968 0.000467565 -0.000122022 -0.000865837 -0.0014061 
-0.00198447 -0.00228657 -0.00249718 -0.00246185 -0.00227681 -0.00192873 -0.00147716 -0.000990785 -0.000461232 -2.47486e-05 
0.00035426 0.000582854 0.00073232 0.000727864 0.000679562 0.000540272 0.000422847 0.000297734 0.000232196 0.000197025 
0.000244105 0.000282748 0.000306663 0.000262053 0.00016001 8.21499e-05 3.9385e-05 -0.000133161 -0.000665811 -0.00138219 
-0.00130633 -0.000560964 -0.000629761 -0.00153605 -0.00150001 0.000764891 -0.00324141 -0.000286381 -0.00102866 -0.00097224 
-0.00159975 -0.00256178 0.00194756 0.00153861 0.00124986 0.00225557 0.000748267 0.00543502 0.00494575 0.00271606 
0.000241246 -0.0026391 -0.00131758 -0.000532716 0.001209 0.00124338 -0.00123418 -0.00105502 0.000539942 0.00102865 
-0.00121762 -0.00028255 0.000903585 -0.000299998 -0.000550296 0.000966626 -0.000136118 -0.00103687 0.000332891 -1.89877e-06 
-0.000551356 0.000466471 8.39551e-05 -0.000235978 0.000418046 -0.000109186 -8.41492e-05 0.000248858 -0.000291258 5.31729e-05 
-7.98258e-05 -0.000211029 9.17913e-05 -4.35631e-05 0.000195333 0.000377282 0.000319726 0.000548065 0.00027591 0.0001978 
-0.000111835 -0.000480784 -0.000674252 -0.00102318 -0.000999269 -0.0010499 -0.000791228 -0.000503573 -0.000102933 0.000359604 
0.000731124 0.00113964 0.00131347 0.00148667 0.00139166 0.00129155 0.000993826 0.000697232 0.00033132 4.17788e-05 
-0.000239866 -0.000413867 -0.00052133 -0.000547219 -0.000532486 -0.000500247 -0.000489262 -0.000491561 -0.000532948 -0.000566468 
-0.000528289 -0.000371462 -0.000119261 0.00016996 0.000264174 0.000143271 -3.75904e-05 4.54953e-05 0.000251203 -0.00031561 
-0.00131952 -0.00110767 -0.000206038 -4.07149e-05 -0.00302211 0.0012199 -0.00230947 -0.00130799 -0.000854964 -0.00192124 
-0.0017985 0.00188708 0.00224009 0.000560915 -0.000469031 -0.0031348 -0.00362742 -0.00227239 -0.00513176 -0.00433694 
-0.00288344 0.00114561 0.00359787 0.00137319 -0.000427407 -0.00198086 -0.000598031 0.00111032 0.000724829 -0.000927081 
-0.000603739 0.00124142 -4.26151e-05 -0.00076179 0.00061588 0.000426906 -0.00120235 0.000415162 0.000698662 -0.000599479 
7.38713e-05 0.000531081 -0.000650733 0.000223539 6.69524e-05 -0.000429672 0.000179193 -9.04577e-05 -0.000266633 0.000303885 
-0.000199545 0.000176977 0.000171072 -8.43302e-05 0.000225121 -0.000181027 -8.14382e-05 -0.000179814 -0.00033929 -0.00010198 
-0.000224217 0.000123689 0.000217173 0.000442849 0.000655837 0.000638318 0.000763142 0.000513557 0.000428934 6.37646e-05 
-0.000185356 -0.000497901 -0.000750749 -0.000889781 -0.00100456 -0.000931061 -0.000856442 -0.00063108 -0.000487394 -0.000232412 
-0.000117009 2.60137e-05 3.11671e-05 6.30979e-05 1.37752e-05 3.86347e-05 2.70362e-05 0.000111871 0.000152323 0.000158258 
3.08776e-05 -0.000130528 -0.00030278 -0.000232688 -2.77698e-06 0.000127489 -0.000200225 -0.000770857 -0.000531207 0.000124978 
-0.000513983 -0.00146083 -0.00184875 0.00160136 -0.00315447 0.00063411 -0.000426478 -0.00138505 -0.000330387 -0.000159822 
0.00081569 0.000804295 -0.000401111 0.000574645 -0.00158581 0.000248665 0.00236802 0.00440364 0.00393688 0.00463938 
0.00355335 0.00214643 -0.00197557 -0.00399185 -0.00175446 0.000906382 0.00170104 -0.000245628 -0.00126408 -0.000385172 
0.00101255 1.99364e-06 -0.000984675 0.000367849 0.00070164 -0.000918221 -5.13091e-05 0.00101879 -0.000734019 -0.000552677 
0.000762047 -0.000347429 -0.000258946 0.000634804 -0.000373043 8.42189e-05 0.000419631 -0.000315426 0.000348927 0.00012239 
-0.000150884 0.000293991 -0.000216792 -2.17279e-05 3.4397e-05 -0.00025028 0.000162502 -0.000121322 9.47279e-05 0.000106667 
-5.13469e-05 0.000114923 -0.000228167 -0.000143809 -0.000415271 -0.000464732 -0.000516798 -0.000600832 -0.000431836 -0.000452328 
-0.000186302 -0.000135915 0.000105887 0.000145778 0.000263912 0.000226084 0.000216738 0.000155024 7.90844e-05 4.37808e-05 
2.9093e-05 8.30466e-05 0.00012346 0.000188601 0.000172664 0.000138749 -8.67389e-06 -0.000145825 -0.000234307 -0.000205753 
-0.00011377 -3.10774e-05 -0.000151356 -0.000400075 -0.000461836 -9.70191e-05 0.000381739 -0.000194527 -0.00117054 -0.000591924 
0.000143458 0.000821115 -0.0030462 0.00234491 -0.00191392 -0.00108009 4.29636e-05 -0.000951687 -0.00149779 -0.000564948 
-0.00114153 -0.00183414 0.00212623 0.000486969 -0.00100917 0.000794543 -0.00142129 -0.00144849 -0.00502798 -0.00500255 
-0.00450604 -0.00251657 -0.00050966 0.00229769 0.00353867 0.000974177 -0.00178716 -0.00158276 0.000617954 0.00119783 
-0.000265991 -0.00079658 0.000490691 0.00077732 -0.000640491 -0.000378223 0.000979205 -0.000444654 -0.000813063 0.000869463 
0.00024478 -0.000795752 0.000571233 -8.29218e-05 -0.000454751 0.000463032 -0.000251865 -0.000253028 0.00034377 -0.000480256 
6.43361e-05 -1.79109e-05 -0.000340966 0.000229013 -0.000227974 3.60365e-05 8.75078e-05 -0.000178467 0.000187929 -0.000148945 
9.68753e-05 5.15981e-05 4.57519e-05 0.000281266 0.000143055 0.000428694 0.000294809 0.000434207 0.000350254 0.000319489 
0.000269639 0.000124776 0.000138764 3.31157e-06 0.000100022 1.36022e-05 0.00014589 0.000107111 0.000203796 0.000113509 
0.000107172 -3.3236e-05 -6.44288e-05 -0.000144245 -9.31214e-05 -2.5254e-05 0.000117579 0.00013277 0.000125352 9.72823e-06 
-1.01478e-06 0.000152035 0.000424002 0.000373061 -0.000116134 -0.000711986 -0.000171584 0.00061326 -0.000459141 -0.00128766 
-0.00237122 0.00214566 -0.00368681 0.001148 0.000579466 -0.0008401 -7.71613e-05 0.000518135 -4.72819e-05 -0.00119271 
-0.00100477 0.00379477 0.00377902 -0.00128734 -0.000673462 -0.000460015 -0.000525232 0.00211448 0.000642332 0.00481488 
0.00460454 0.00437166 0.000986918 -0.0017841 -0.00335471 -0.00360175 -0.000354179 0.00189271 0.00119671 -0.00110065 
-0.000989171 0.000826667 0.000472099 -0.000721524 -0.000453566 0.000890767 -0.000182711 -0.000819103 0.000712871 0.000529147 
-0.00097176 0.000189274 0.000578146 -0.00055409 0.000353648 0.000237409 -0.000492015 0.000423282 -5.07901e-05 -0.00021347 
0.000426231 -0.000256415 0.000180043 0.000214668 -0.000151896 0.000364902 -7.59575e-05 0.00014702 0.000184744 -6.35992e-05 
0.000263057 -0.000116625 0.000106348 -0.000103183 -0.000133544 -0.000102729 -0.000293918 -0.00011864 -0.000313128 -9.22618e-05 
-0.000191754 -1.83986e-05 -5.96193e-05 1.3315e-05 4.37803e-05 2.27964e-05 8.02075e-05 6.62484e-05 0.000203184 0.000252581 
0.00045573 0.00050236 0.000646134 0.000602673 0.000582735 0.000439738 0.000443489 0.00039152 0.000426781 0.000289028 
-7.57912e-06 -0.000361524 -0.000290858 0.000238753 0.000735415 -4.10645e-05 -0.00107348 -2.04436e-06 0.00033631 0.00151466 
-0.00368268 0.00301137 -0.00180378 -0.00108735 0.000743552 0.000127561 -0.000624208 -0.00041493 0.000332886 0.000672069 
0.00173349 0.00275906 -0.0025743 -0.00394312 -0.00129875 -0.000594572 0.000959772 0.0001083 -0.00265618 -0.00100519 
-0.00435713 -0.00323411 -0.00386615 0.000425542 0.00307334 0.00388661 0.0029201 -0.000560505 -0.00181136 -0.000900136 
0.00147382 0.00056256 -0.00096112 -0.000121045 0.000915625 -3.105e-05 -0.000927661 0.000621638 0.000485756 -0.000887782 
-0.000156993 0.000879721 -0.000529407 -0.000243571 0.000375275 -0.000545403 5.56616e-05 0.000342034 -0.000436807 0.000298963 
2.30353e-05 -0.000248834 0.000399323 -0.000292981 5.53626e-05 2.30331e-05 -0.000331858 0.000117065 -0.000356915 -7.54715e-05 
-0.000150923 -0.000271969 1.57394e-05 -0.000288149 3.68296e-05 -0.000170495 -1.67565e-05 -5.47395e-05 -0.000105061 -1.04991e-05 
-0.000180119 1.65468e-05 -0.000152726 3.1481e-05 -6.09148e-05 0.000108511 1.99602e-05 8.91803e-05 -2.72157e-05 -6.22921e-05 
-0.000171394 -0.000215786 -0.000257464 -0.000211159 -0.000185819 -0.000188256 -0.000193033 -0.000134567 7.21658e-05 0.000514927 
0.000869222 0.0007508 9.13295e-05 -0.000378646 0.00044765 0.0014393 -9.16361e-05 -0.000444401 -0.00232078 0.0031556 
-0.00453475 0.000558717 0.000381455 -0.00114218 -0.000178867 0.000855574 0.000854426 0.000310833 -0.000149835 0.00035756 
0.000672344 -0.00153785 -0.00176133 0.000910404 0.00241154 0.00247164 0.0014299 -0.000936451 -0.00040543 0.00213021 
0.00167504 0.00374817 0.00134195 0.00199587 -0.0026453 -0.00429577 -0.0045274 -0.00198 0.00114176 0.00155956 
0.000526553 -0.00148323 -1.02877e-05 0.000824119 -0.000109489 -0.00099587 0.000557985 0.000633227 -0.00081653 -0.000153271 
0.000979028 -0.000290802 -0.000533073 0.000620892 -3.08042e-05 -0.000106572 0.00061353 -0.00034744 -4.46911e-05 0.000280264 
-0.000423358 0.000199678 -6.29109e-05 -0.000343463 0.000232719 -0.000299106 0.000102126 0.000137051 -8.95968e-05 0.000381778 
-7.60916e-05 0.0002894 9.84746e-05 9.80424e-05 0.000242889 3.68092e-09 0.000325579 7.6136e-05 0.000370275 0.000225707 
0.000354126 0.000329316 0.000279122 0.00029464 0.000102624 0.000146532 -6.06846e-05 2.25813e-05 -0.000154024 -4.6501e-05 
-0.000164542 -5.52831e-05 -0.000148151 -4.85341e-07 4.48377e-05 0.000209176 0.000153968 3.129e-06 -0.000450345 -0.000667532 
-0.000372632 0.000478243 0.000943697 2.62939e-05 -0.00102614 0.000736093 0.000685133 0.00270493 -0.00369649 0.00444417 
-0.00112659 -0.00131535 0.000552586 6.05621e-05 -0.000568723 -0.000324001 0.000234227 0.000676965 0.000670453 -5.14813e-05 
-0.000720048 0.000883452 0.00244022 0.000396345 -0.000818664 -0.00188154 -0.00324059 -0.00229618 -0.000295518 0.00054857 
-0.000805631 -0.0015412 -0.00276442 0.000250389 0.000390486 0.0046772 0.00507202 0.00472362 0.000848053 -0.00137369 
-0.00125245 3.71995e-06 0.0011263 -0.00029239 -0.000549435 0.000289846 0.00077515 -0.000885745 -0.000238525 0.000799152 
-0.000205248 -0.000863342 0.000595059 0.000124503 -0.000537829 0.00023002 -0.000259483 -0.000423317 0.000435655 -0.000226984 
-5.8821e-05 0.000402237 -0.000376628 0.00038217 0.000119187 -4.40659e-05 0.000443304 -0.000217128 0.000169422 -3.01399e-05 
-0.000203296 0.000168453 -0.000279872 0.000188438 -0.000109012 6.04225e-05 1.7788e-05 -0.000168403 3.17302e-05 -0.000351994 
-0.000133815 -0.000420203 -0.000212464 -0.000352581 -0.000158114 -0.000159516 -3.2119e-05 5.80783e-05 0.000110417 0.00015705 
8.53489e-05 3.966e-05 -0.000213062 -0.000450251 -0.000699647 -0.000728283 -0.000514681 -3.88537e-05 0.000232499 -9.95601e-05 
-0.000838331 -0.0010395 0.000251835 0.0015336 -0.00034237 0.000116199 -0.00221567 0.00476423 -0.00437273 0.00106286 
0.00120271 -0.00105182 -0.000653867 0.000317656 0.000541556 0.000438826 0.00032758 0.000350584 0.000681582 0.000671825 
0.0006604 0.00309858 -0.00102872 -0.00408483 -0.00105618 0.000237154 0.00175937 0.00330608 0.00260965 0.00206448 
0.000351253 0.000113645 0.000652202 0.00100247 -0.00207899 -0.00331368 -0.00646115 -0.00556602 -0.00433853 0.000106279 
0.00138146 0.000967596 -0.000409712 -0.000499604 0.000268456 0.000249718 -0.000416418 -0.000281044 0.000820974 -3.96965e-05 
-0.000647935 0.000560211 0.000505824 -0.000581032 0.000165568 0.000370708 -0.00030442 0.000581105 4.70545e-05 -0.000301765 
0.000417971 -0.000216139 -0.000140337 0.000346238 -0.000499479 0.000114529 -0.000201192 -0.000387289 0.000212223 -0.000381977 
0.000168001 -9.94679e-05 -0.000149861 6.10025e-05 -0.000416444 1.99113e-05 -0.000376229 -0.000110592 -0.000167195 -2.02319e-05 
0.000109114 3.10475e-05 0.000265004 2.21808e-05 0.000158361 -0.000184706 -0.000146619 -0.000496719 -0.000436323 -0.000591953 
-0.000389813 -0.000236147 0.000191275 0.000352148 0.000472396 8.93217e-05 -0.000349035 -0.000681331 -0.000222674 0.00046645 
0.000532221 -0.00091443 -0.00213496 0.000197148 -0.000389652 0.0025093 -0.00495496 0.00513921 -0.000402882 -0.000899383 
0.00134913 0.000928561 -0.000167289 -0.00031635 5.69052e-06 0.000301228 0.000413908 0.000425305 0.00056936 0.00100293 
0.00150196 0.000283832 -0.00452817 -0.00066405 0.00398622 0.00237751 0.000882444 -0.00181313 -0.00315416 -0.00206287 
-0.00250197 -0.000916154 9.19115e-05 0.000623223 0.00115116 0.00409828 0.00616434 0.00776447 0.00565371 0.0033935 
-0.000598607 -0.00120393 -0.00064022 0.000489198 -3.75192e-05 -1.95223e-05 6.17345e-05 0.000321873 -0.000217135 -0.000471242 
0.00015681 0.000328962 -0.000686959 -0.000127245 0.000340828 -0.000326998 -8.39359e-05 0.000123409 -0.000620199 0.000256033 
7.08447e-05 -0.000480717 0.000455121 -0.000244513 -0.000132726 0.000411615 -0.000273921 0.000429368 0.000123106 -5.39026e-05 
0.000396923 -0.000219311 0.000362566 4.55659e-05 0.000273205 0.000390503 0.000202216 0.000540719 4.1164e-05 0.00030805 
-8.34017e-05 2.3459e-05 -0.000198694 -8.60689e-05 1.18254e-05 0.00013444 0.000432765 0.000485307 0.000685728 0.000506392 
0.000364248 -7.63637e-05 -0.000210919 -0.000325437 0.000121541 0.00050165 0.000714482 7.48805e-05 -0.000713147 -0.000656784 
0.000812726 0.00196805 -0.000830767 5.9397e-05 -0.00317431 0.00512782 -0.00559858 0.000343429 0.00136384 -0.000887818 
-0.000610133 0.000501453 0.000710413 0.00049939 0.000448915 0.000577429 0.000621404 0.000349837 0.000249106 0.000574355 
0.000531742 -0.00189186 -0.00137231 0.00388784 0.00212501 -0.00257701 -0.00337986 -0.00242863 0.00171947 0.00386804 
0.00272852 0.00276163 0.00121935 -0.000120686 -0.00207405 -0.00348362 -0.00628831 -0.00840587 -0.00844524 -0.0051514 
-0.00209101 0.000679795 0.0009164 0.000420622 -0.000177516 0.000184795 -0.000347216 -0.00034293 7.36241e-05 0.000404847 
6.69334e-05 -0.00014826 0.000123562 0.000423239 -1.79209e-05 -4.78193e-05 0.000321576 -0.000236632 0.000246714 0.000380207 
-0.000398091 0.000186581 0.000269581 -0.000459392 0.000482161 -0.000140628 -0.000162501 0.000249271 -0.000504234 0.000151877 
-0.000197244 -0.000177223 0.000172841 -0.000446211 7.4886e-05 -0.000455953 -0.000224046 -0.000294166 -0.000261055 -3.47519e-06 
-0.000122665 0.000315011 4.11168e-05 0.000305722 -9.57235e-05 -3.9871e-05 -0.000359143 -0.000324285 -0.00035973 -5.3278e-06 
0.000221528 0.00049482 0.000426274 8.88105e-05 -0.000309826 -0.000240206 0.000507997 0.00141517 0.00107072 -0.000489622 
-0.00176649 0.00131389 -0.000115279 0.00323104 -0.00604894 0.00530755 -0.000880587 -0.00220475 0.000393349 0.00060097 
-0.000202053 -0.000220287 0.000244126 0.00049286 0.000508683 0.00047801 0.000753772 0.000794903 0.000384513 8.54044e-05 
-0.000216116 -0.000279886 0.00158527 0.00133654 -0.0027062 -0.00263451 0.000801278 0.00376348 0.00441969 0.000334188 
-0.00316418 -0.00341937 -0.0028458 -0.00126528 0.000328671 0.00346455 0.00573102 0.00838498 0.00962285 0.00833904 
0.00402305 0.000825038 -0.000495723 -0.000544223 -0.000547477 -0.000337134 0.000146606 0.000807855 0.000382706 -0.000594882 
-0.000190544 0.000276023 -3.58075e-05 -0.000442575 5.88882e-05 -8.06847e-05 -0.000215344 -2.20646e-05 0.000323118 -0.000527536 
-2.02127e-05 0.000425554 -0.000338142 0.000126615 0.000220221 -0.000464301 0.00038132 -0.000113695 -1.89411e-05 0.000381539 
-0.000284258 0.000277129 -0.000132028 1.55622e-05 0.000143657 -0.000122348 0.000349369 -9.20276e-05 0.000233634 -0.000151473 
-4.9225e-05 -0.000209725 -0.000243663 -3.47646e-05 -8.1436e-05 0.000196247 0.000117342 0.000229351 -0.000159297 -0.000176813 
-0.000421785 -9.54871e-05 0.000228993 0.000681514 0.000391006 -0.000430146 -0.00134347 -0.00066031 0.00103304 0.00236242 
-0.00102809 0.000762135 -0.00285084 0.00709689 -0.00521252 0.000860684 0.00230812 -0.000741837 -0.00134814 -0.000611697 
-0.00032948 -0.000476758 -0.000270369 0.000281647 0.000884096 0.000908371 0.000666167 0.000710902 0.000695198 0.000230702 
0.000455827 0.00115325 -0.000327422 -0.00211268 -0.000844087 0.00204041 0.00277971 0.000903618 -0.00278204 -0.0045315 
-0.00211326 0.00169267 0.0037419 0.0028741 0.00122006 -0.000878226 -0.00460987 -0.00759549 -0.00991948 -0.00958115 
-0.00720688 -0.00237206 0.000130513 0.000249042 0.00026857 0.00116993 0.000723993 -0.000900556 -0.0013066 6.2076e-05 
0.000902541 -0.000321746 -0.000503136 0.000445365 0.000343157 -0.000433496 0.000283931 0.000308738 -0.000474929 -8.48317e-05 
0.000544256 -0.000391319 -0.000311362 0.000249625 -0.000434958 9.66089e-05 0.000175871 -0.000456893 0.000267309 -0.000259974 
-3.95705e-05 0.000279144 -0.000227022 0.000455499 2.19035e-05 0.000257866 6.83306e-05 1.84687e-05 0.000252789 -7.52403e-05 
0.000340365 1.83358e-05 0.000283367 3.56007e-05 0.000188684 4.06405e-05 0.000232114 0.000311038 0.000391693 0.000260729 
-0.000144163 -0.000707935 -0.00104628 -0.000655377 0.000375161 0.00122197 0.000349395 -0.00140732 -0.00255308 0.00123845 
-0.00070332 0.00321574 -0.00732088 0.00589654 -0.000190906 -0.0021249 0.000977985 0.00156417 0.000546814 -0.000171759 
-0.000262539 -0.000403792 -0.000661471 -0.000711058 -8.1188e-05 0.00081533 0.00106612 0.000819323 0.000828795 0.000392486 
0.00110222 -0.000120482 -0.00272463 -0.000110529 0.00317291 0.00109751 -0.00166961 -0.00287536 -0.00147952 0.00271934 
0.00444968 0.00362053 0.000268663 -0.00321338 -0.00265901 -0.00109777 0.0017478 0.00543974 0.00876655 0.0103789 
0.00827981 0.00497399 0.000509838 -0.000686589 -0.000111198 -0.000453837 -0.00217376 -0.000701751 0.0019578 0.00156108 
-0.00100303 -0.000741775 0.00100811 0.000418549 -0.000913367 0.000192685 0.000554088 -0.000515206 -6.26345e-05 0.000784302 
-0.000286528 -0.000267595 0.000689266 0.000125889 1.57778e-05 0.000481124 -0.000296589 0.000139836 0.000293192 -0.000213711 
0.000245441 -0.000223089 -0.00016319 -0.000250905 -0.000583519 -6.50615e-05 -0.000438601 1.3909e-05 -0.000134645 7.94436e-05 
0.000144741 3.65862e-05 0.000120837 -0.000130153 -6.55782e-05 -0.000459994 -0.000408201 -0.000559017 -8.94585e-05 0.000286999 
0.00107541 0.00118032 0.000638438 -0.00065499 -0.00145214 -0.000420303 0.00131769 0.00221476 -0.00193549 0.000170427 
-0.0038709 0.00741277 -0.00651262 -0.000215056 0.00247339 -0.000541892 -0.00118048 -9.08981e-05 0.000638241 0.000515293 
0.000143527 -4.36723e-05 -0.000182056 -0.000500857 -0.000647526 -0.000102439 0.000709011 0.000704895 0.000999501 0.000402669 
0.000649868 -0.00193899 -0.00152691 0.00337905 0.00170427 -0.00359793 -0.00227474 0.00102472 0.0039975 0.00311936 
-0.00224236 -0.00430267 -0.00473849 -0.00220437 0.00181968 0.00202691 0.000818417 -0.00270926 -0.00592689 -0.00892811 
-0.00934098 -0.00581905 -0.00184341 0.00121952 0.000947983 0.000262714 0.00143968 0.00319988 0.00013607 -0.0030896 
-0.00114821 0.00211724 5.66804e-05 -0.00168204 0.000216848 0.00109407 -0.000948467 -0.000346904 0.0007088 -0.000415668 
-0.000648737 0.000530593 -0.000229089 -0.000625556 2.42625e-05 -0.000243085 -0.000177611 0.000309115 -0.000315331 0.000110391 
0.000117143 -0.000102363 0.000407235 0.00023647 0.000539001 0.000339988 0.000156562 0.000189218 -0.000257202 -0.000192611 
-0.000429203 -9.68271e-05 -4.96965e-05 0.000376975 0.00062083 0.000925538 0.000811117 0.000358886 -0.000252079 -0.00105643 
-0.00114554 -0.000397943 0.000904958 0.00161249 0.000205172 -0.00149833 -0.00222486 0.00216377 -0.000144057 0.0038384 
-0.00824418 0.00637173 -5.18888e-05 -0.00342788 -0.000333125 0.000717535 -0.000156444 -0.000639642 -0.000282001 0.000386827 
0.000611332 0.000438401 0.000236552 -0.000116892 -0.000585327 -0.000736755 0.000155369 0.000302607 0.000804568 0.00042701 
-0.000300425 -0.00188839 0.00117556 0.00293832 -0.00266568 -0.00355332 0.00240088 0.00355975 0.00122794 -0.00384554 
-0.00488426 0.00094327 0.00406681 0.00562082 0.00389031 0.000199323 -0.000859083 -0.000216253 0.00345332 0.00600482 
0.00786406 0.00669106 0.00238811 -0.00164524 -0.0025755 -0.001104 -0.000935958 -0.00325579 -0.00385244 0.000981837 
0.00388014 -0.000141901 -0.0029344 0.00104523 0.00192339 -0.00133795 -0.000743999 0.00158893 -0.000346377 -0.00070086 
0.000844318 0.000111704 -0.000445631 0.000558504 8.97048e-05 -6.5783e-05 0.000177021 -0.00012793 -0.000160055 -0.000114645 
-0.000318883 0.000110499 -0.000126894 -0.000335528 -0.000178754 -0.000245326 0.000107099 0.00016137 0.000558553 0.000625017 
0.000631895 0.000436506 8.00107e-05 -0.000138819 -0.000520918 -0.000181131 0.000197739 0.00101515 0.00163208 0.00159965 
0.000523605 -0.00083489 -0.001475 0.000267031 0.00187053 0.00231761 -0.00225314 0.000119859 -0.00374496 0.00901982 
-0.00644409 -0.000105261 0.00382324 0.000576879 -0.00104933 -0.000352255 6.83137e-05 -0.000213559 -0.000763741 -0.000783627 
-0.000246857 0.00016152 0.000541872 0.000705826 0.000387973 -0.000675076 -0.000518003 -0.000344361 0.000288265 0.000562633 
-0.000779123 -0.000520581 0.00178498 -0.000189616 -0.00348477 0.000752804 0.00395078 -0.000282688 -0.00318178 -0.00306319 
0.0025893 0.00600899 0.00121619 -0.00333309 -0.00620827 -0.0052946 -0.00246303 -0.000797945 -0.000818357 -0.00371644 
-0.00546782 -0.00549828 -0.00267889 0.00169948 0.00474414 0.00341728 0.00132952 0.00237196 0.00553494 0.00383492 
-0.00258723 -0.00384122 0.002132 0.00310045 -0.00229679 -0.00127857 0.00250436 -0.000132775 -0.0016528 0.00140409 
0.000329898 -0.000956113 0.000632697 0.00013421 -0.00033436 0.000609403 -0.000152003 -4.33751e-06 0.000501216 0.000265521 
0.000325667 -9.65588e-05 -5.82938e-05 3.8981e-05 -0.000139861 -4.60722e-05 -0.000327193 -0.000308939 -0.000392754 -0.000410227 
1.50565e-06 0.000229981 0.000835384 0.000990332 0.000909681 0.000453436 -0.000197144 -0.000725974 -0.000450335 0.000686574 
0.00195572 0.00211534 -0.00013954 -0.0018617 -0.00208855 0.00253628 0.000161842 0.00391436 -0.00949969 0.00698811 
0.000813566 -0.00371174 -0.000490363 0.0015822 0.000869909 0.000178154 0.000198528 0.00046151 0.000381852 -0.000245746 
-0.000509132 -0.000576028 -0.000467856 5.69603e-05 0.000989821 0.000483669 -8.48336e-05 -0.000691066 -0.000791035 0.000534072 
-0.000556324 0.000240408 0.000248303 -0.00157094 -0.000568904 0.00258637 0.00028193 -0.00323451 -0.00090321 0.00249947 
0.0040836 -0.000828153 -0.00600759 -0.00367653 0.00182614 0.00624422 0.00647398 0.00463942 0.00271728 0.00218764 
0.00339518 0.00403641 0.00194554 -0.00212063 -0.00587102 -0.00672515 -0.00363908 -0.00184767 -0.00468251 -0.00763634 
-0.0028442 0.00446633 0.00265724 -0.00440205 -0.00238281 0.00329208 -0.000288193 -0.00316538 0.00129319 0.000773001 
-0.00229112 0.000444506 0.000461932 -0.00119159 0.000252055 -0.000485272 -0.000499264 0.000413883 -0.000731931 -0.000180823 
-9.54031e-06 -0.000181778 0.000665458 0.00014707 0.000684928 0.000531058 0.000395286 0.000617331 0.000180344 0.000465321 
4.24914e-05 5.2477e-05 0.00012029 0.000712176 0.00141971 0.00224534 0.00260082 0.00219264 0.000674237 -0.000622942 
-0.000803116 0.00163084 0.00282527 0.00247298 -0.00260979 -0.000419706 -0.00422036 0.00993966 -0.00760941 -0.00156877 
0.00382426 0.000821389 -0.00148324 -0.000786208 0.000327277 0.000439529 0.000282341 0.000178257 0.000529204 0.000473147 
0.000134752 -4.6322e-05 -0.00040182 -0.000922649 9.65992e-06 0.000683234 0.000757702 0.000301043 -0.00145691 -7.65867e-05 
-0.000213763 -0.000210636 -0.00099274 -6.23183e-05 0.00142294 3.98083e-06 -0.00244962 -0.000628579 0.00304474 0.00203008 
-0.00194538 -0.00456983 -0.000859715 0.00502304 0.00573939 0.0003663 -0.00542045 -0.00736521 -0.00650932 -0.00455872 
-0.00351527 -0.00251258 -0.00151327 0.00247438 0.00690917 0.00921918 0.0071435 0.00327738 0.00303491 0.00760911 
0.00871166 0.000485034 -0.00610099 -0.000313025 0.00631391 0.000575896 -0.00363714 0.00240581 0.00287444 -0.00227388 
0.000870101 0.00224195 -0.001421 0.000564919 0.00125972 -0.000726936 0.00100728 -0.000195503 -0.000324648 0.000719433 
-0.000795471 5.29315e-05 -0.000487082 -0.000984535 -0.000204664 -0.000947535 0.000253573 0.000172826 0.000681395 0.00108535 
0.00113653 0.00139478 0.000809659 0.000663049 0.000186345 0.000810036 0.00158082 0.00370422 0.00455992 0.00438192 
0.000860958 -0.000605134 -0.000637564 0.00393277 0.00129579 0.00445934 -0.0107158 0.00764103 0.00201924 -0.00443288 
-0.00146539 0.00109703 0.000756237 -0.000655427 -0.00073089 -0.000406843 -4.6676e-05 -2.10058e-05 0.000155351 0.000598023 
0.00053317 0.000396531 0.000527475 -0.000537843 -0.000919535 -0.000216654 0.000379305 0.00157251 -0.000803958 -0.000789182 
-0.000181548 -0.000978299 -0.000504724 0.00180844 8.20516e-05 -0.00277716 -0.000536785 0.00291331 0.00186038 -0.00262351 
-0.00354796 0.001146 0.00487203 0.0023818 -0.0034868 -0.00693524 -0.00280623 0.00362655 0.00767452 0.0079011 
0.00600413 0.00427603 0.00107948 -0.00202702 -0.00719792 -0.010782 -0.0107639 -0.0060767 -0.00270132 -0.00513537 
-0.0102968 -0.0078015 0.00332587 0.00675415 -0.00285083 -0.00690551 0.00221423 0.00302233 -0.00445875 -0.00136208 
0.00283903 -0.00246773 -0.000732775 0.00185786 -0.00190609 0.000214889 0.00115044 -0.00127088 0.00148594 9.9134e-05 