# vtk DataFile Version 2.0
Titre
ASCII
DATASET STRUCTURED_POINTS
DIMENSIONS 100 100 1
ORIGIN 0.0 0.0 0.0
SPACING 0.1 0.1 0.0
POINT_DATA 10000 
SCALARS rho float
LOOKUP_TABLE default
0.00340416 0.000384054 -8.08168e-05 8.65119e-05 -0.000851067 -0.00101443 -0.000885195 -0.00157267 -0.000355556 0.000232344 
0.00117738 0.000991912 0.000797484 2.63856e-05 -0.000223061 -0.00030434 -4.07207e-05 5.05129e-05 1.58638e-05 -1.29331e-05 
-0.000128069 -0.000150482 -0.00025257 -2.88818e-05 0.000166401 0.000388374 4.19117e-05 -0.000282722 -0.000229446 6.32104e-05 
4.01644e-05 3.58027e-05 0.000269554 -1.10423e-05 -0.00013343 6.50838e-07 -2.58825e-05 -0.000119988 0.000128919 4.98906e-05 
-6.0915e-05 0.000141126 -7.05507e-05 -3.48522e-05 6.32742e-05 -0.000104521 4.04655e-05 -8.0134e-06 -6.08534e-05 3.96745e-05 
-6.89899e-05 9.02706e-07 -7.81101e-06 -3.97645e-05 3.46154e-05 -3.25588e-05 3.91204e-05 2.79698e-05 2.79451e-05 0.00010173 
5.11417e-05 0.000158526 0.000129391 0.000205913 0.000205065 0.00019762 0.000204846 9.24135e-05 6.441e-05 -0.000122902 
-0.000218497 -0.000401237 -0.000466093 -0.000531117 -0.000430488 -0.000285692 2.0328e-06 0.000254369 0.000479177 0.000505433 
0.000386509 0.000108157 -0.000159303 -0.000312836 -0.000261256 -2.02236e-05 0.000242084 0.000439336 0.000422857 0.000300798 
7.08814e-05 -0.00023257 -0.00077834 -0.00112165 -0.000807941 -0.000312132 0.000811303 0.00189036 0.000946221 0.00340543 
0.000634231 -0.00200473 -0.00101319 -0.000931297 -0.00127338 -0.000421928 -4.01734e-05 0.000525311 0.0019112 0.0014822 
0.00116838 -0.000438894 -0.000851895 -0.000684219 0.000456329 0.000670247 0.000168332 -0.000535872 -0.000353844 0.000145818 
0.000276407 -3.16564e-05 -0.000185799 -2.0855e-05 0.00027526 4.66361e-05 -0.000237515 -0.000179831 0.000320893 -5.51276e-05 
-0.000143041 0.000187866 0.000165667 -0.000295158 9.10935e-05 0.000166943 -0.00031162 0.000147611 9.36293e-05 -0.000235096 
0.000115443 1.44144e-05 -0.000197016 0.000169746 -3.82815e-05 -5.95356e-05 0.000200647 -0.000121255 9.15188e-05 7.63912e-05 
-7.82227e-05 0.000176617 -4.92858e-05 5.93614e-05 6.53306e-05 -7.9511e-05 7.89713e-05 -0.000110824 -1.41757e-05 -9.39381e-05 
-0.000134662 -7.9168e-05 -0.000226937 -7.39257e-05 -0.000203419 -4.84417e-05 -5.12516e-05 8.54534e-05 0.000163446 0.00027511 
0.000335489 0.000315596 0.000253925 4.87666e-05 -0.000156196 -0.000409766 -0.00054242 -0.000553284 -0.000364979 -5.93792e-05 
0.000250122 0.00043309 0.000356745 0.000115643 -0.000197121 -0.000301296 -0.000156202 0.00018434 0.000468495 0.000452437 
0.000244668 0.000116186 5.80742e-05 -0.000548617 -0.000498765 -0.000540634 -0.00195451 0.000799624 -0.0016664 -0.00134979 
0.000879167 -0.000184351 -0.000532262 -0.000175423 -0.00185875 -0.000309454 -0.00175566 -0.000110033 -0.000514799 -1.67036e-06 
-0.000129529 0.000150281 0.000566256 0.000764982 0.000218262 -0.000640016 -0.000745224 -2.48419e-05 0.000610699 0.000208989 
-0.000263901 -0.000316218 0.000143925 0.000196172 6.58423e-05 -0.000269791 -4.92006e-05 0.000301608 5.86053e-05 -0.000301361 
0.000104262 0.000293573 -0.000451075 -2.73435e-05 0.000273173 -0.000266197 -6.71417e-05 0.000410324 -0.000250205 -1.46414e-05 
0.000375033 -0.0003388 0.000192781 0.000181569 -0.000298731 0.000275668 -0.00015159 -0.000160362 0.000141896 -0.000296525 
4.93215e-05 -8.53196e-05 -0.000188923 6.30221e-05 -0.000208206 2.84741e-05 -9.5264e-06 -4.27225e-05 0.000193891 1.2893e-05 
0.000258203 0.000173277 0.00024101 0.000263419 0.000174613 0.000221648 -1.30315e-05 3.72e-05 -0.000260885 -0.000236596 
-0.000438371 -0.00036886 -0.00040863 -0.000216005 -0.000133624 8.44123e-05 0.000139466 0.000231843 0.000153672 0.000147717 
5.20535e-05 9.34047e-05 5.92036e-05 6.24493e-05 -6.90439e-05 -0.000207846 -0.000280704 -0.000143006 0.000281972 0.000687567 
0.000605567 2.91658e-05 -0.000358063 -0.00138009 -0.00140564 0.0011671 0.000312325 0.0024721 0.0030616 0.000993599 
0.00148496 -0.00165357 0.00116513 -0.00116844 0.000619065 -0.000113757 0.000907383 0.001388 0.0017713 0.00145384 
0.000711632 -0.000466823 -0.00110869 -0.00114797 -0.000624329 0.000413034 0.000749531 0.000512644 -0.000537473 -0.000531082 
-9.03945e-06 0.000529445 2.19015e-05 -0.000163833 -0.000170733 0.000144317 8.97642e-05 2.92532e-05 -0.000340511 6.56981e-05 
0.000247025 -0.000224366 -0.000172715 0.000472345 -3.27175e-05 -0.000258678 0.000532865 -0.000175337 -0.000347648 0.000359945 
-0.000303112 -0.000254841 0.000340339 -0.000398104 -1.68702e-05 0.000222258 -0.000376455 0.000327915 4.60399e-05 -3.72306e-05 
0.0004235 -9.59171e-05 0.000270459 0.000174508 -8.88605e-06 0.000285282 -9.20091e-05 8.91067e-05 -7.80374e-05 -0.000203091 
-0.000103738 -0.000404615 -0.000163678 -0.000390032 -0.000188829 -0.000158919 -3.22265e-05 0.000149783 0.000250248 0.000421071 
0.000368068 0.000436057 0.000152399 6.51143e-05 -0.000297475 -0.000384186 -0.000571075 -0.000423119 -0.00031804 2.95073e-07 
0.000179409 0.000332623 0.000316925 0.000199423 0.000103095 -1.85545e-05 -1.93185e-05 -0.00015082 -0.000193438 2.35481e-05 
0.000332518 0.000187352 0.000770118 0.000195704 -0.00251965 -0.00120474 -0.00204079 -0.00130473 0.000375243 -0.000481292 
-0.00206306 -0.000572368 -0.00168885 -0.001226 -0.00201043 -0.00146124 -0.00165773 -0.000711487 -0.00119826 -0.000984634 
-0.00141569 -0.000710592 0.00043613 0.00141254 0.00122441 0.000147153 -0.00107008 -0.000966881 -8.27177e-05 0.00091135 
0.000467488 -0.00043251 -0.000547904 0.00019336 0.000373819 -0.000157028 -0.000175539 -2.1699e-05 0.000193801 0.000104569 
-3.65654e-06 -0.000175003 0.000296552 -4.78881e-05 -0.000401714 0.000173104 -2.20106e-05 -0.000517459 0.000262469 0.000183754 
-0.000343045 0.000594704 8.50141e-05 -0.000185064 0.000618473 -0.000271484 9.0391e-05 0.000278859 -0.000455604 0.000202966 
-0.000319484 -0.000309075 -2.45153e-05 -0.000465949 -4.29122e-05 -0.00021042 -0.000166073 8.65319e-05 -6.90299e-05 0.000247147 
0.000198906 0.000322732 0.000379209 0.00029351 0.000367317 5.03883e-05 0.000147793 -0.000271639 -0.000218284 -0.000452629 
-0.000395086 -0.000376545 -0.000189129 -4.41029e-05 0.00015146 0.000226517 0.000239339 0.000128353 4.37054e-05 -8.27284e-05 
7.65649e-07 1.52833e-05 0.000199464 9.01663e-05 -1.09094e-06 -0.000274274 -0.000246345 1.15575e-05 0.000227085 0.000575054 
0.00101284 -0.000171819 -0.000524522 0.000856338 -0.000937492 0.000233517 0.00131353 0.000248706 0.00255476 0.000537876 
0.00241495 0.00144855 0.0024284 0.000875293 0.00146491 0.000800678 0.00141706 0.00159706 0.00122736 0.00127106 
0.00034572 0.000374685 -0.000408008 -0.00113674 -0.00161608 -0.00103583 0.000547386 0.00134126 0.000877682 -0.000609438 
-0.000973535 -0.000272103 0.000850809 0.000358061 -0.00041137 -0.000425698 0.000438954 0.000253531 -0.000240399 -0.000184391 
1.33213e-05 8.40772e-06 -0.000167166 -8.77068e-05 0.000167283 0.000253273 -0.000158561 0.000297185 0.000394516 -0.000296899 
0.000180212 4.91739e-05 -0.000637487 7.64276e-05 -0.000259207 -0.000521076 0.000273387 -0.000382611 7.22669e-06 0.000285618 
-0.000177795 0.000538926 0.000145403 0.00031953 0.000433975 5.42882e-05 0.000351899 -6.59094e-05 -1.52768e-05 -0.000121067 
-0.000399747 -0.000218562 -0.000519822 -0.000316173 -0.000302933 -0.000194953 5.89741e-05 0.000145264 0.000405149 0.000343193 
0.000523304 0.000197878 0.000244132 -0.000177281 -0.000163786 -0.000463929 -0.000287901 -0.000411602 -0.000101039 -0.000167346 
0.000108196 5.08887e-05 0.000283422 0.000352219 0.00043183 0.000275148 -0.000152287 -0.000285446 -0.000632694 -0.000973171 
0.000622789 0.000886963 -0.00044563 0.000600963 -0.000997604 -0.00291309 -0.000206857 -0.00146529 0.000238913 0.00182552 
-0.0015488 -0.00164964 -0.00165686 -0.00351919 -0.00206504 -0.0035098 -0.00116973 -0.00197514 -0.000980027 -0.00144584 
-0.00141271 -0.000477563 6.97964e-05 0.00138565 0.00161551 0.00159127 0.000111494 -0.001257 -0.00158381 -0.000123114 
0.00108294 0.000941112 -0.000405398 -0.000778057 -0.000178382 0.000721666 8.29358e-05 -0.000485626 -0.000309011 0.00050873 
6.19948e-05 -0.000180836 0.000217349 0.000364777 -4.36703e-05 -0.000316607 7.15963e-05 -0.000162445 -0.000457175 -0.0001236 
2.08504e-05 -0.000337138 0.000220544 0.000478948 -0.000106963 0.000730442 0.000261108 -5.24569e-05 0.000623624 -0.000428042 
0.000144258 -0.000141588 -0.000563132 -1.76881e-05 -0.000678919 -0.000170207 -0.000289696 -0.000184644 0.000157567 4.251e-05 
0.000448918 0.000314972 0.000496562 0.000425906 0.00023906 0.000263834 -0.000165608 -0.000146996 -0.000429577 -0.000448043 
-0.000410189 -0.000334451 -8.8346e-05 8.98124e-06 0.000274516 0.000193998 0.000315514 7.73201e-05 8.76092e-05 -7.38015e-05 
-6.44228e-05 -5.44082e-05 -0.000174457 -7.77297e-05 -0.000190536 4.53042e-05 -0.000160073 0.000268582 0.00104692 -0.000305894 
6.77081e-05 0.000912963 -0.000511517 -0.000333114 0.00182638 -0.00171611 0.000531159 0.000569926 0.000572784 -0.000309974 
0.000228098 0.00320015 0.000441184 0.00168269 0.000959953 0.00096215 0.00218149 0.00080156 0.00166685 0.000144147 
0.000652544 0.000359366 -7.50751e-05 -0.000934969 -0.00208827 -0.00197895 -0.0010124 0.000914134 0.00196051 0.00125683 
-0.000767875 -0.00152249 -0.000357847 0.000970589 0.000576756 -0.000413199 -0.000530753 0.000183327 0.000614523 -1.31426e-05 
-0.000390271 -2.90719e-05 0.000336668 -0.000527059 -0.000482785 0.000240442 0.000118979 -0.000151377 0.000479508 0.000543864 
-0.000127563 0.000415859 0.000308935 -0.000488049 1.88793e-06 -0.000265324 -0.00085499 8.43414e-06 -0.000489293 -0.000372722 
0.000455997 -0.000417891 0.000643941 0.000249129 0.000208648 0.000812763 -0.000115309 0.000555985 -0.000143633 -0.000164844 
-0.000188127 -0.00063098 -0.000308226 -0.000580723 -0.000249572 -0.000191938 8.82777e-05 0.000263831 0.000386718 0.000522499 
0.000351243 0.000361089 2.90826e-05 -4.0758e-05 -0.00030251 -0.00025319 -0.000372511 -0.000134395 -0.000244176 9.82129e-05 
-8.27369e-05 0.000387226 0.000199767 0.000510041 0.00032224 0.000487241 -0.000104272 -0.00131505 0.000164033 -0.000596259 
-0.000693006 0.000771916 0.00154663 -0.00209798 0.00140913 -0.00153166 -0.00133022 -0.000408468 0.000668318 0.00246139 
0.00280582 -0.000418213 -0.00033566 -0.00167329 -0.00154996 -0.00153288 -0.000283436 -0.00109556 0.000160837 -0.00115605 
0.000207347 -0.000284712 0.000707677 0.00084004 0.00203641 0.00226123 0.00188367 -0.000343029 -0.00175476 -0.00234642 
-0.000165937 0.00143976 0.00168702 -0.000660307 -0.00119656 -0.000154247 0.00105297 6.13958e-05 -0.00054535 -0.000394491 
0.000190451 0.000236521 -0.000234681 -6.33037e-05 0.000553853 0.000579011 -0.000330001 0.00021543 0.000147262 -0.000892681 
-0.000274798 -5.72678e-05 -0.000689766 -9.75505e-05 0.000421638 -0.000255481 0.000605027 0.000758619 -0.000141276 0.000976486 
-0.000107534 -0.000154524 0.000284526 -0.000925462 7.95229e-05 -0.000714287 -0.000369217 -9.38695e-05 -0.000429728 0.000467139 
-5.91651e-05 0.000682952 0.000361801 0.000476557 0.000444483 8.79179e-08 0.000116158 -0.000413231 -0.000298093 -0.000513987 
-0.000366911 -0.000244086 -9.26553e-05 0.000200288 0.000152188 0.000439714 9.13511e-05 0.000352099 -0.000162608 0.000100121 
-0.000389653 -0.00015775 -0.000231694 -0.000259567 -0.00026981 2.03525e-05 0.00130164 -0.000567351 0.000819521 0.000707587 
9.64526e-06 -0.00186131 0.00281793 -0.00195686 0.000688433 0.000233794 -0.000607709 6.29008e-05 -0.000242369 3.86813e-05 
-0.0014839 -0.00146366 -0.00176682 -0.00202886 -0.00119509 -0.000913548 1.35489e-05 -0.000745167 -0.00034051 -0.00127091 
-0.000406456 -0.00068631 -0.000607085 -0.00129838 -0.00204053 -0.0025274 -0.00231741 -0.000640126 0.00168621 0.00272554 
0.00154528 -0.000978054 -0.00212091 -0.000810295 0.00129753 0.00129196 -0.000763198 -0.00108547 0.000307915 0.000944542 
-0.000154209 -0.000174554 0.00013729 0.000299246 -0.000199312 -0.000604892 -0.000334295 -3.47834e-05 -0.000401834 -3.16347e-05 
0.000997962 8.85088e-05 0.000366361 0.000892551 -0.000316145 4.23923e-05 0.000126869 -0.0008794 -0.000283058 -0.000223166 
-0.000959016 0.000514593 -0.000337256 0.000277611 0.00085061 -0.00018986 0.00112254 -0.000144375 0.000377426 3.79446e-05 
-0.000500551 -1.80632e-05 -0.000869042 -0.000123095 -0.000624235 8.98796e-06 -8.74214e-05 0.000305174 0.000333584 0.000408985 
0.000340076 0.000195 -3.35085e-05 -0.000115253 -0.000381764 -0.000215229 -0.000390574 -7.41659e-05 -7.18264e-05 0.000108954 
0.000278669 -8.44932e-05 0.00051715 0.000291142 0.000297749 -0.00100125 0.000998448 -0.00109 -0.000832649 -0.00105816 
0.00245296 -0.00327782 0.00275713 -0.00019656 -0.000577576 0.000150161 -0.000924294 -0.000500639 0.000850131 0.0007067 
0.0018024 0.00202962 0.0018104 0.00181132 0.00220799 0.00225933 0.00286374 0.00193257 0.00230069 0.00140641 
0.00201903 0.0014581 0.00140668 0.00153673 0.00190865 0.00293386 0.00237738 0.00163694 -0.00127457 -0.00281361 
-0.00306929 0.000114008 0.00212331 0.00212519 -0.000632105 -0.00164217 -0.000627348 0.00137865 0.000828054 -0.000878808 
-0.000690259 0.000394211 0.000203743 -0.000765282 -5.82216e-05 0.000391711 0.000422367 0.000239018 0.000375183 0.000674603 
-0.000375901 -0.000557601 -0.000141306 -0.00085612 -0.000543885 0.000226038 -0.000317476 0.000269958 0.000754031 1.10695e-05 
0.000719223 0.000356109 -0.000331266 0.000388674 -0.000904402 -0.000220252 -0.000489569 -0.000737693 0.000264041 -0.000575564 
0.000639127 8.71478e-05 0.000540578 0.00056754 0.000118617 0.000549435 -0.000401626 0.000204351 -0.000681559 -2.24985e-05 
-0.000562773 0.000114526 -0.000169956 0.000371424 0.000179126 0.000363599 0.000265316 -6.16747e-05 0.000148733 -0.000472275 
0.000345122 -0.000611476 -0.000220514 -1.59489e-05 0.000893235 -0.00108198 0.00121969 0.000451387 0.00190968 -0.00334587 
0.00423751 -0.00285223 8.8019e-05 0.000880806 -0.000646514 0.000146357 0.000159846 -0.000462599 -0.000307503 0.0011815 
0.00126363 -0.00170442 -0.0016884 -0.0032981 -0.00313679 -0.00328004 -0.00304638 -0.00369515 -0.00321032 -0.00364636 
-0.00224942 -0.00262698 -0.00158881 -0.00223053 -0.00185922 -0.0028019 -0.00270841 -0.00184 0.000469921 0.00290151 
0.00369557 0.00180824 -0.00171707 -0.00317022 -0.000878567 0.00183554 0.00167391 -0.000778711 -0.00135956 -0.000191489 
0.00113658 0.000109158 -0.000514703 0.000196802 0.000925477 -6.7335e-06 -0.000630264 3.18677e-05 -0.000392611 -0.000695606 
-0.000609342 0.000410022 0.000204007 0.000167219 0.00133555 -2.5739e-05 0.000116959 0.000419115 -0.000804019 -0.000331287 
-8.44317e-05 -0.000992239 0.000316873 -6.08903e-05 -7.24426e-05 0.00114489 -0.00017516 0.00106652 6.40233e-05 7.59157e-05 
0.000170942 -0.000802216 6.94494e-05 -0.000938595 -5.29534e-05 -0.000420791 1.81075e-05 0.000198241 0.000131311 0.000479021 
3.62858e-05 0.000284958 -0.000181821 -0.000157694 -0.000216871 -0.000442072 0.000171109 -0.000364564 0.000483822 -0.000409917 
0.000472171 0.000473565 -0.000497598 -0.000460566 0.00129682 -0.00115447 0.000501466 -0.00293144 0.00442401 -0.00559355 
0.00262106 0.000265251 -0.00100602 0.00110272 0.000126918 -0.000573554 -0.000339568 -4.89967e-05 0.000187118 -0.000110698 
-0.000809312 -0.00121768 1.44192e-05 -0.000149477 0.00183912 0.00286862 0.00330555 0.0038833 0.00325013 0.00374915 
0.00318984 0.00282174 0.00228968 0.00166855 0.00232498 0.00204883 0.00291394 0.00172095 0.00026444 -0.00301396 
-0.00417009 -0.00324487 0.000498173 0.00321558 0.0029046 -0.000791872 -0.00274804 -0.000672097 0.00180537 0.00108353 
-0.000959316 -0.000577836 0.000402563 0.000396519 -0.000725979 -0.000767767 0.000162122 0.000338274 -8.77791e-05 0.000398255 
0.00103609 0.000262071 -0.000179827 0.000221461 -0.000626271 -0.00112203 0.000305505 -0.000653835 6.95899e-05 0.000922519 
-0.000151632 0.000770386 0.000448084 -0.000473092 0.000499033 -0.000879593 -0.00041236 -0.000246041 -0.00102952 0.000452499 
-0.000544505 0.000615218 0.000314381 0.00034136 0.000738357 -0.00018854 0.000632372 -0.000647611 0.000343625 -0.00077608 
0.000309358 -0.000612101 0.000601163 -0.00040258 0.000821757 -0.000477381 0.000575632 -0.000413419 0.000258386 -0.000205764 
-0.00096226 0.00113022 0.000157197 -0.00146182 0.00171622 -0.00173815 0.00434796 -0.00603931 0.00662378 -0.00236407 
-0.000813831 0.00149505 -0.00113653 -0.000331195 0.000490672 7.97683e-05 -0.000101281 -0.000230384 0.000100859 0.000525509 
0.000738028 0.00125276 0.0015725 0.000351092 0.00138546 -0.000371949 -0.000571893 -0.00185931 -0.0028496 -0.00207007 
-0.00299316 -0.00145153 -0.00232267 -0.00100881 -0.00164697 -0.0015984 -0.00213018 -0.00162232 -0.000134843 0.00247375 
0.00473424 0.00463224 0.000955392 -0.00294576 -0.00411679 -0.00096397 0.00229866 0.00267737 -0.000916352 -0.00213591 
-0.000209223 0.00157865 -0.000162725 -0.000996558 0.000323961 0.000787565 0.000583467 -0.000302805 0.000222404 1.54687e-06 
-0.000689146 -0.000696534 -0.000328189 5.97235e-06 -0.000371134 0.000887028 0.00066507 -0.00018317 0.000780764 -0.000539626 
-0.000703075 0.000132253 -0.00109353 0.000101834 0.000264344 -0.000366184 0.00133507 -0.000269589 0.00104939 0.000140265 
-5.79871e-05 0.000290212 -0.000868368 7.0848e-05 -0.000737381 -0.00020455 -2.25004e-05 -0.000325756 0.000654903 -0.000474612 
0.000932977 -0.000767415 0.000787567 -0.000891341 0.000555142 -0.000469586 2.00655e-05 0.000142437 -0.00022943 0.00149255 
-0.00162141 -0.000104916 0.00199697 -0.00281701 0.00347516 -0.00591549 0.00807143 -0.00710433 0.00174407 0.00143134 
-0.00238696 0.000882363 0.000682636 -0.000300281 0.000105029 -8.84785e-05 -0.000301176 -6.79566e-05 0.000176241 0.000555516 
0.000485749 -2.89791e-05 -0.0018588 -0.00231285 -0.00210125 -0.0026648 -0.00110824 -0.00203222 -0.000345943 -0.000314145 
0.000182292 0.000416129 -0.000361558 0.000291288 -0.000178256 0.000703036 0.000830883 0.00113563 -0.000315249 -0.00252375 
-0.00496931 -0.00532991 -0.00292045 0.00205429 0.00507604 0.00316409 -0.00149646 -0.00350588 -0.000927692 0.00205484 
0.00170926 -0.00105706 -0.00121291 0.000898846 0.00101762 -0.000877121 -0.000717455 -0.000120187 -0.000105328 -0.000398252 
-1.73754e-05 0.00098249 0.00024988 0.000293363 0.000422803 5.11857e-05 -0.000943915 9.83014e-05 -0.000463915 -0.000430536 
0.00102866 -4.99373e-05 0.000624199 0.000808915 -0.000567512 0.000387083 -0.000549673 -0.000913147 0.000285072 -0.00142535 
0.000736115 -0.00077441 0.000699925 7.41296e-05 0.000393079 0.00041814 1.0381e-05 0.000235167 -0.000184415 -3.05881e-05 
-0.000132566 3.5291e-05 -0.00016483 0.000353434 -0.000553987 0.00107251 -0.00101121 0.000889172 -0.00195938 0.00184114 
0.000337075 -0.0029193 0.0043542 -0.00519638 0.00772826 -0.00969849 0.00700412 -0.000750592 -0.00254452 0.00303386 
-0.000469764 -0.00110541 0.00029192 -0.000183388 -3.65431e-05 0.000283619 -8.64402e-06 -0.000257987 3.56589e-05 0.000417407 
0.000458515 -0.000597291 -0.000966634 0.00102103 0.00119003 0.003629 0.00350922 0.00359231 0.00394258 0.00311187 
0.00362942 0.00257775 0.00288215 0.00219954 0.00221758 0.00100181 0.000841375 -8.9576e-06 0.00111285 0.00243845 
0.0054962 0.00595164 0.00419218 -0.000984423 -0.00478874 -0.00556232 -0.000464401 0.00364739 0.00332337 -0.00142384 
-0.00260349 -0.000108668 0.00157359 0.000391655 -0.00161625 -0.000158064 0.000811562 0.000436188 -9.38307e-06 0.000416079 
0.00061341 -0.000324538 -0.000747454 -2.03768e-05 -0.00043316 -0.000412342 0.000273544 0.000534044 -0.000182584 0.00070866 
-0.00021274 -0.00074824 5.76962e-05 -0.00101662 -0.000210519 0.000368252 -0.000392995 0.0012721 -1.95832e-05 0.000691452 
0.00059712 -0.000535881 0.000870603 -0.00119634 0.000614104 -0.00094031 0.00019649 -0.000228937 -0.0002225 0.000474186 
-0.000741322 0.00112229 -0.00127156 0.0015755 -0.00199423 0.00159513 -0.00107599 0.00174671 -0.00145764 -0.00102765 
0.00420252 -0.00595845 0.00670525 -0.00940381 0.0107063 -0.00624085 -0.000440425 0.00399926 -0.00315929 -0.000442236 
0.00134639 -0.000575948 8.99918e-05 0.000320251 -0.000156344 -0.000162123 -5.72901e-05 -3.07287e-05 8.85788e-05 0.000421469 
0.000351567 -0.000543325 0.000941598 0.000463227 0.000171604 4.00529e-05 -0.00287987 -0.00314749 -0.0052618 -0.00500078 
-0.00567431 -0.00560159 -0.0053766 -0.00505278 -0.00406096 -0.00357282 -0.00196941 -0.00178844 -0.00156936 -0.00345418 
-0.00490774 -0.00666423 -0.00501628 -0.00048146 0.00515446 0.00661337 0.00311961 -0.00268169 -0.00474255 -0.00118739 
0.00305703 0.0021191 -0.0017393 -0.0012119 0.000783734 0.00146596 -0.000543143 -0.000660045 0.000322288 -0.000533698 
-0.000447891 -0.000540774 0.000378654 0.000511382 -1.98776e-05 0.000400834 0.000406199 -0.000744651 6.96368e-05 2.39661e-05 
-0.000878903 0.00114409 -0.000137591 0.000577953 0.000892623 -0.000348292 0.000141464 -0.000163075 -0.00133405 0.000526577 
-0.00159453 0.000763543 -0.000800807 0.000544974 -4.86076e-06 0.000260564 0.000214931 0.000269208 -0.000144764 0.000598473 
-0.000860442 0.000937332 -0.00117123 0.00138432 -0.000729985 -0.000226286 -0.000190817 0.000149269 0.00225056 -0.00564523 
0.00726586 -0.00787896 0.010755 -0.0110378 0.00529604 0.00189977 -0.00516795 0.00251431 0.00158205 -0.00169749 
0.000654535 0.000153576 -0.0006705 -2.66611e-05 0.000159175 0.000125653 -2.63834e-05 -0.000169662 1.24402e-05 0.000339396 
-0.000251598 0.000702917 -0.000104294 -0.00134701 -0.000765247 -0.00155306 -0.000602015 0.000476423 0.0019525 0.00407555 
0.00488539 0.00611598 0.00597706 0.00634537 0.00529974 0.0046994 0.00325742 0.00276878 0.00202784 0.00353413 
0.0049443 0.00663785 0.00494844 0.00156117 -0.00477109 -0.00780035 -0.00592812 0.00122701 0.00535988 0.00349176 
-0.00156771 -0.00363266 -8.09416e-05 0.00230649 0.000393063 -0.00176608 -0.000490399 0.000721623 0.000148862 -0.000501701 
0.000751647 0.000564366 0.00032863 -0.000468427 4.3943e-06 -0.000345501 -0.000259749 4.72112e-05 0.000524729 -0.000140527 
0.000271566 0.000319627 -0.00117057 0.000509921 -0.00132879 3.89722e-05 -4.2535e-05 -1.56132e-05 0.000699733 0.000691258 
-8.5815e-05 0.00150292 -0.00142886 0.0018564 -0.0020971 0.00171307 -0.00205773 0.00140338 -0.00163311 0.00122999 
-0.00091681 0.000563374 -0.000361686 -0.0005724 0.0020567 -0.00161537 0.00102833 -0.00297757 0.00624698 -0.00759618 
0.00839091 -0.0115031 0.0109203 -0.00428719 -0.00349241 0.0057677 -0.00115233 -0.00257685 0.00196095 -0.000380191 
-0.000875815 0.000711915 0.000103729 -0.000130191 -6.63832e-05 -8.78715e-05 -8.51296e-06 -2.52786e-05 5.74215e-05 0.000434446 
0.00114312 0.00114198 -0.00171042 0.000260838 3.86085e-05 0.00164297 0.00262015 0.00179132 0.00234042 -5.06351e-05 
-0.00044926 -0.00305457 -0.00331719 -0.00448547 -0.00413973 -0.00376852 -0.00292692 -0.00186837 -0.0023652 -0.00239381 
-0.0044937 -0.00526816 -0.00541631 -0.000946248 0.00431489 0.00888635 0.00772611 0.00171573 -0.00526312 -0.006264 
-0.000101965 0.00352237 0.00263125 -0.00219225 -0.00170805 0.00105787 0.00131047 -0.000131431 -0.000618992 0.000507158 
0.000206735 -0.000814056 -0.000368269 -0.000295014 0.000381716 -3.32524e-05 0.000351953 0.000210481 -0.000368947 -0.000459492 
0.000267988 -0.000733144 0.000635403 0.000509471 -0.000182982 0.00154365 -0.000876872 0.000736602 -0.000669451 -0.000538857 
-0.000361984 -0.000516336 -0.000486781 0.000570117 -0.000933528 0.00160787 -0.00127305 0.00179376 -0.00123249 0.000986989 
-0.0001564 -6.64875e-05 0.00105306 -0.00288139 0.00206672 -0.000685549 0.00197531 -0.00512476 0.00657765 -0.00809872 
0.0116912 -0.0106738 0.00316071 0.00513101 -0.00564229 -0.000379532 0.00331107 -0.00184107 -0.000477587 0.00161472 
-0.00053156 -0.000364309 8.92103e-05 -0.000161098 6.49744e-05 9.17369e-05 -1.34653e-05 -0.000131245 -7.76734e-05 0.000561728 
0.00160465 -0.00178262 -0.0012725 0.000819617 -0.000579246 0.00161905 -0.00167387 -0.00218744 -0.00345906 -0.00450265 
-0.0029302 -0.00377605 -0.0008122 -0.00162858 0.000618058 -0.000647295 0.000435932 -0.00059991 -5.09555e-05 0.000764439 
0.00265888 0.00375018 0.00364192 0.000591269 -0.00454271 -0.00985751 -0.00978199 -0.00377427 0.00417691 0.00758979 
0.00380792 -0.00326968 -0.00402595 3.93976e-05 0.00283313 0.000639227 -0.00221309 -0.000125595 0.000528438 -0.000179016 
-0.000550997 0.000243393 0.000273146 0.000683861 -9.18092e-05 -0.000185929 0.000145085 -0.000760907 0.000385519 0.000169371 
0.000561365 -0.000150268 0.000724807 -0.00121084 0.000330223 -0.000946467 -0.000438704 0.00042619 -0.000623287 0.00112682 
1.61659e-05 0.000454483 0.000765817 -0.000750988 0.00102815 -0.00150303 0.00120869 -0.00174206 0.00160106 -0.00249044 
0.00191399 -0.00241571 0.00388321 -0.00227526 -0.000116641 -0.000253573 0.00347243 -0.00542054 0.00797639 -0.0122338 
0.0108594 -0.00201674 -0.00644497 0.0048549 0.00186744 -0.003803 0.00126238 0.00172137 -0.00183714 -6.20102e-05 
0.000650961 -0.000322825 0.000165439 3.88256e-05 -0.000157908 -4.69164e-05 8.44415e-06 2.31951e-05 -9.23805e-05 8.30432e-06 
-0.000627703 -0.00191718 0.00145902 7.71066e-05 0.000284643 0.000360513 -0.00193432 0.00072588 0.000573829 0.00391524 
0.00494481 0.00597272 0.00685733 0.00583932 0.0064461 0.00489705 0.00569514 0.00424093 0.00392667 0.00214315 
0.000753983 -0.00156981 -0.00144823 0.000661869 0.00589604 0.0100998 0.0112003 0.00639787 -0.00344314 -0.0084766 
-0.00699823 0.00115915 0.00504309 0.00235025 -0.00246512 -0.00203717 0.0009745 0.00159829 -0.000550321 -0.000262268 
0.000371855 0.000745147 -0.000720787 0.000229609 -0.000768388 0.000119317 0.000358831 -0.000364282 0.00105821 -0.000759481 
-2.11143e-05 -0.000660547 1.26955e-05 -0.000531911 0.00145427 -0.000979731 0.00211263 -0.0012256 0.0010625 -0.000874071 
-3.22387e-05 -0.000616413 0.000238649 -0.00104925 0.00157552 -0.00220055 0.00300561 -0.00320937 0.00449785 -0.00335955 
0.00362168 -0.00461264 0.00263517 0.000666589 -0.00111469 -0.00252349 0.00506217 -0.0086634 0.0135262 -0.0113189 
0.000722905 0.00733628 -0.00367769 -0.0032952 0.00407951 -0.000113831 -0.00277701 0.00133375 0.000896341 -0.000940992 
0.00039968 6.98739e-05 -0.000358939 6.13292e-05 1.05088e-05 4.18136e-05 -8.12511e-06 -7.3649e-05 2.35637e-05 -7.28909e-06 
-0.000553636 0.00215643 0.00126911 -0.000909224 0.000342963 -0.00115972 0.000563612 0.00134684 0.000938693 0.00103692 
-0.00229151 -0.00348139 -0.00682983 -0.00762882 -0.00941994 -0.0093407 -0.00944069 -0.0086646 -0.00791263 -0.00561681 
-0.00353097 -0.00149924 -0.000975142 -0.00244023 -0.00640222 -0.011078 -0.0122718 -0.00681725 0.00128017 0.0102932 
0.00907752 0.00251811 -0.00522446 -0.00490714 0.00103424 0.00293547 0.00045465 -0.0017542 -0.000415928 0.000880537 
-0.000529592 -0.000160621 -0.000475351 0.0002643 6.11939e-05 0.000610578 -0.000518187 0.000169566 -0.000146558 -0.000860895 
0.000880908 -0.000187192 0.00095289 -0.000190548 0.000471375 -0.00132587 0.000891931 -0.00224834 0.00217108 -0.00244976 
0.00278895 -0.00219891 0.00235256 -0.00183467 0.00203248 -0.00178376 0.00167272 -0.00259409 0.00100283 -0.00102703 
0.00190325 -0.000570099 -0.00322039 0.00377293 0.000668948 -0.00380142 0.00857542 -0.013955 0.0105576 0.00147525 
-0.00832008 0.00253647 0.00458401 -0.00375578 -0.00158307 0.00330078 -0.000322212 -0.00158019 0.00101006 1.45045e-06 
-0.000622519 0.000454164 3.27838e-05 -9.0838e-05 -2.70855e-05 -9.66454e-05 3.63902e-05 2.71519e-07 -2.0592e-05 0.000419538 
0.0020272 0.00187893 -0.00276724 -0.0011192 -0.000847906 -0.000241778 0.00172837 -0.000820336 -0.000552498 -0.0026673 
-0.00242922 -0.00103399 0.000551807 0.004136 0.00553988 0.00854954 0.00898504 0.00982022 0.00836398 0.00748388 
0.00507564 0.00316055 0.0020984 0.00357697 0.00721616 0.0104047 0.0121235 0.00759348 -0.00183221 -0.0104114 
-0.0125211 -0.0053532 0.00403576 0.00634836 0.00225222 -0.00320391 -0.00201948 0.00113742 0.00128422 -0.000798333 
0.000104501 0.000193855 0.000181389 0.0005876 -0.000382433 6.58994e-06 -0.000564477 0.00100567 -0.000962551 0.00110786 
0.000204597 -0.000679641 0.000274778 -0.00115271 0.000264131 -0.000254611 0.000805525 -0.000235167 0.00139529 -0.00157951 
0.00214011 -0.0028143 0.00259151 -0.00298975 0.00217461 -0.00148749 0.00154035 0.000685402 -0.00174703 0.000976974 
-0.00163351 0.00613062 -0.00664574 0.00200165 0.00135645 -0.00722645 0.0129435 -0.00852226 -0.00411039 0.00902105 
-0.000960017 -0.0058576 0.002644 0.00338019 -0.00306905 -0.000867478 0.00201931 -0.000632935 -0.000808386 0.000989118 
-0.000125441 -0.000299058 0.000172808 -0.000138205 2.25871e-05 3.89739e-05 -3.75458e-05 -2.64094e-05 -0.000111225 0.000308005 
0.00176507 -0.00281714 -0.00276308 0.0010904 0.000335723 0.00245785 0.000501304 -0.0011687 -2.95486e-05 -0.000233867 
0.00296532 0.00350537 0.00452818 0.00340131 0.00139492 -0.000731827 -0.00262585 -0.00436119 -0.00456501 -0.00436699 
-0.00242468 -0.00196999 -0.00112028 -0.00284765 -0.00518343 -0.0100364 -0.0095643 -0.00690322 0.00321997 0.011499 
0.0151751 0.00856662 -0.00200789 -0.00814681 -0.00487131 0.00161776 0.00324307 -0.00013156 -0.000724986 -0.000982988 
0.00134633 -0.00083072 0.000151671 1.32492e-05 -0.00124277 0.0011827 -0.000388933 0.000204274 -0.000796967 0.00127626 
-0.0021191 0.00103707 -0.000299317 0.000471396 0.00060032 0.000201338 -0.000297489 -0.000132156 -0.000789472 0.000207042 
-0.0003902 0.000667222 0.000119428 0.000429604 -0.000712223 -5.36696e-05 -0.00153026 0.00280439 -0.00101676 0.000766574 
-0.00574071 0.00661239 -0.00290216 -0.000204588 0.00671257 -0.0126828 0.00768217 0.00509933 -0.00786686 -0.0020619 
0.00716021 -0.000977023 -0.00459715 0.00201816 0.00219143 -0.00220834 -0.000213623 0.00154273 -0.000646295 -0.000536943 
0.000546803 -0.0002145 4.54062e-05 0.000145095 -0.000159598 -2.72669e-05 8.34873e-06 2.69811e-05 -6.80717e-05 -0.00027633 
-0.00107969 -0.00259857 0.00229399 0.00205525 0.000994909 0.000520322 -0.00249099 -0.000772838 -0.000231339 0.00113488 
0.000633813 -0.00129661 -0.00366312 -0.00601715 -0.00719197 -0.00736196 -0.0058895 -0.00567517 -0.00384215 -0.00443559 
-0.00305478 -0.00428793 -0.00299256 -0.00110205 0.00273627 0.00528911 0.00766621 0.00268719 -0.00418387 -0.0143499 
-0.0172472 -0.0112201 0.000196321 0.00917384 0.00787761 0.00101099 -0.00332742 -0.00219099 0.00161969 -0.000310283 
0.000512532 -0.000475593 0.000226679 -0.000335275 0.000766509 0.000694859 -0.00161254 0.00124285 -0.000338666 0.000282217 