# vtk DataFile Version 2.0
Titre
ASCII
DATASET STRUCTURED_POINTS
DIMENSIONS 100 100 1
ORIGIN 0.0 0.0 0.0
SPACING 0.1 0.1 0.0
POINT_DATA 10000 
SCALARS rho float
LOOKUP_TABLE default
0.00112884 -0.00131784 -0.000831894 -0.00161841 0.000565188 0.00188679 0.000621208 -0.00045189 -0.000541541 -0.000151898 
-0.000473576 -0.000226804 0.000457899 0.000574914 -7.36101e-05 -0.000624886 6.83531e-05 0.000690822 0.00028568 -0.000502786 
-0.000337686 0.000377949 0.000560944 0.000402356 0.000236566 0.000275798 7.80127e-05 -0.000784815 -0.00215689 -0.00285746 
-0.002115 9.2536e-05 0.00284408 0.0047881 0.00507037 0.00364073 0.00107939 -0.00157995 -0.00356892 -0.00441505 
-0.00411173 -0.0029671 -0.00141759 0.000127368 0.00132811 0.00208072 0.00229525 0.00212169 0.00161948 0.00098596 
0.000306806 -0.000307769 -0.000798933 -0.00116131 -0.0013568 -0.00143583 -0.00137017 -0.00121917 -0.000978817 -0.000697769 
-0.00039806 -9.79549e-05 0.000197654 0.0005063 0.00084674 0.001205 0.00154787 0.00181308 0.00198276 0.0020906 
0.00217539 0.00225202 0.0023133 0.00237653 0.00245921 0.00254773 0.00254904 0.0023975 0.0021067 0.00183639 
0.00169498 0.00172203 0.00178037 0.00167095 0.00127699 0.000574116 -0.000310512 -0.00111509 -0.00167569 -0.0017166 
-0.00142162 -0.00078214 -0.000191512 7.48243e-06 0.000143146 -0.000401889 7.92675e-06 5.58107e-05 0.000540625 0.00316718 
0.000624364 -0.000617667 0.00200901 0.00245325 0.00422603 0.00198788 -0.000473082 -0.00167702 -0.000615413 0.000365967 
0.000398375 5.71643e-05 -5.50539e-05 0.000494968 -1.66733e-05 -7.48893e-05 0.000315077 0.00026911 -0.0001921 -0.000321782 
0.000153936 7.74742e-05 0.000385654 0.000779551 0.000448126 -0.000777292 -0.0022473 -0.0030474 -0.00195783 0.00104281 
0.0043336 0.00639437 0.00576294 0.00260278 -0.00173825 -0.00551244 -0.00733255 -0.00660227 -0.00401793 -0.000440962 
0.00276974 0.00488566 0.00551079 0.00477249 0.00314281 0.00111938 -0.00077893 -0.0022428 -0.00311108 -0.00337524 
-0.00313337 -0.00252776 -0.00170505 -0.000806119 7.41958e-05 0.000862861 0.00151793 0.00203148 0.00239551 0.00262444 
0.00274433 0.00274439 0.0026905 0.00253959 0.0023763 0.00215902 0.00195268 0.00173272 0.00153652 0.00133383 
0.00117694 0.00101715 0.00090317 0.000771994 0.000648788 0.000454756 0.000213045 -0.00015481 -0.000617513 -0.00117354 
-0.00166322 -0.00197841 -0.00192957 -0.00154252 -0.000827204 -4.44158e-06 0.000763843 0.00124471 0.00141751 0.00119313 
0.000756535 8.51965e-05 -0.000463594 -0.000827717 -0.00115817 -0.00144196 -0.00178482 -0.0010994 -0.00277747 0.000680554 
-0.000163895 -0.000838684 0.000852085 -0.000495016 -0.000984069 -0.00308262 -0.00272415 -0.000349132 0.00134846 0.000612706 
-0.000301169 -0.000512909 0.000689856 0.000399942 -0.000464148 0.000242278 0.000377843 -4.70731e-05 -0.000484681 0.000109252 
0.000189097 0.00028446 0.000982255 0.000419766 -0.00104568 -0.00233088 -0.00233456 -0.000758942 0.00225092 0.00420802 
0.00408696 0.00167527 -0.0018717 -0.00441985 -0.00458971 -0.0024754 0.00116231 0.00437758 0.006045 0.00558127 
0.00325334 7.09673e-05 -0.00299544 -0.00514451 -0.00588016 -0.00541122 -0.00383997 -0.00186315 0.000267966 0.00205634 
0.0033713 0.00412866 0.00429919 0.0040745 0.00343398 0.00264076 0.00166219 0.000693104 -0.000271753 -0.00115905 
-0.00192786 -0.00260066 -0.00312609 -0.0035517 -0.00385295 -0.00407103 -0.00418824 -0.00427178 -0.00426236 -0.00426365 
-0.00417449 -0.0040892 -0.00390163 -0.00367906 -0.00328713 -0.00280868 -0.00212733 -0.00135803 -0.000475214 0.000339494 
0.00101437 0.00137246 0.00142449 0.00111952 0.000601482 -4.39762e-06 -0.00051894 -0.000787691 -0.000771093 -0.000392119 
0.000165576 0.000721758 0.000895288 0.000887872 0.00094368 0.00068151 0.000102542 0.0018955 -0.00106861 -0.000118712 
0.000323798 0.00041952 0.00260308 0.00123521 0.00255881 0.00103618 0.00223519 0.00211856 5.59225e-05 -0.000898956 
-0.000562676 0.000738617 0.000876792 -0.000742023 4.39155e-06 0.000626822 -0.000132923 -0.000640561 -0.000143953 0.000453914 
0.000113263 0.000935925 0.000582338 -0.00113251 -0.00229217 -0.00204726 -0.000655732 0.00167553 0.00312471 0.00242857 
0.000866477 -0.000945524 -0.00137065 -0.000134893 0.00157055 0.00258816 0.00216145 -3.82535e-05 -0.00259044 -0.00482806 
-0.0055244 -0.00451251 -0.00220781 0.000802533 0.00352964 0.00544288 0.00619225 0.00573486 0.00441357 0.00248317 
0.000419169 -0.00152022 -0.00310668 -0.00420102 -0.00483493 -0.0049761 -0.00477151 -0.00423748 -0.00353563 -0.00266191 
-0.00178078 -0.000826476 2.90941e-05 0.000882063 0.00160795 0.0022588 0.00280904 0.00324954 0.00360307 0.00383956 
0.00397571 0.00396888 0.00384042 0.00348987 0.00298018 0.00222318 0.00132678 0.000303151 -0.00067152 -0.00146348 
-0.00191168 -0.00195118 -0.00157347 -0.000883365 -0.000100757 0.000613713 0.00102574 0.00115854 0.000930978 0.000551672 
0.00022191 0.000165867 0.000159977 -0.000244382 -0.000525446 -0.000500332 -0.00295441 0.00024571 -0.000508641 -0.000298993 
0.000306195 0.00014442 0.000405403 -0.00132752 -0.00177122 -0.00415666 -0.00197099 -0.00258474 -0.00127846 0.000288827 
0.000830528 0.000895021 -0.00075005 -0.000490006 0.000915597 -0.000123884 -0.000721993 -0.000196662 0.00068764 0.000319015 
0.000607131 0.000905442 -0.00110824 -0.00228818 -0.00194971 -0.000673927 0.00102164 0.00260831 0.00201337 0.000938271 
-6.94118e-05 -0.000600338 -0.0001648 0.000150094 -0.000404148 -0.00105524 -0.00193637 -0.00181025 -0.000555649 0.00130207 
0.00337584 0.00457518 0.00450277 0.00329638 0.000946333 -0.00145662 -0.00380533 -0.00524127 -0.00581705 -0.00544381 
-0.00425336 -0.00269306 -0.000796561 0.000895103 0.00247917 0.00360719 0.00439727 0.00478506 0.00478313 0.00456549 
0.00401934 0.00342261 0.00262208 0.00185947 0.00100576 0.000241937 -0.00057029 -0.00123104 -0.00190348 -0.00238727 
-0.00280194 -0.00299911 -0.00302689 -0.00279049 -0.0023543 -0.00168409 -0.000914842 -9.11517e-05 0.000553506 0.0010144 
0.00112226 0.000992322 0.000614597 0.000222488 -0.000158463 -0.000344081 -0.000420626 -0.000268348 -3.19367e-06 0.000269013 
0.000439468 0.000703414 0.00143163 0.00180781 0.00164397 0.003697 -0.000294742 0.000131181 5.84089e-05 -0.000221733 
0.000386204 -0.000349944 0.00158134 0.000492777 0.000881652 0.00190983 0.00431143 0.00280391 0.00300416 0.000628955 
-0.000171921 -0.0005669 -0.000678266 0.000888123 0.000156901 -0.000906406 -0.000142858 0.000546583 0.000448595 0.000101075 
0.000810938 -0.000775657 -0.00237984 -0.00178276 -0.000712757 0.000484982 0.00188266 0.00177263 0.000439874 1.25203e-05 
-0.000626695 -0.000423097 2.24214e-05 -9.85227e-05 -3.3833e-05 0.000416285 0.00059538 0.00133938 0.00113789 0.000469399 
-0.000780993 -0.0023824 -0.00337458 -0.00369161 -0.00301373 -0.00141027 0.000446073 0.00250075 0.0039588 0.00486454 
0.00498934 0.00437272 0.00335312 0.00186308 0.00043508 -0.0010747 -0.00225333 -0.00324312 -0.0038374 -0.00415868 
-0.00414299 -0.00389265 -0.00343613 -0.00278804 -0.00210067 -0.00123291 -0.00047483 0.000406412 0.0011045 0.00182032 
0.00227958 0.0026576 0.00269111 0.00257524 0.00212261 0.00154984 0.00078564 0.000124048 -0.000512441 -0.000866122 
-0.00104328 -0.00093792 -0.000689359 -0.000303959 9.5753e-05 0.000450784 0.000622958 0.000565164 0.000442231 0.000329911 
0.000136493 -0.000462215 -0.000570003 -0.000203242 -0.0023402 0.0016405 0.000567043 -6.82303e-05 8.04552e-05 -0.000194747 
-0.000635184 0.000618894 0.00190724 -0.00197812 -0.001088 -0.00177675 -0.0023971 -0.00414426 -0.00336944 -0.00295193 
3.52465e-05 0.00024213 0.000523007 0.000385085 -0.000838025 -0.00015082 0.000446725 0.000384074 0.000181988 0.000607306 
2.19799e-05 -0.00202894 -0.0015708 -0.00062951 -1.1806e-05 0.00099738 0.00146458 0.000162247 -9.52311e-05 -0.000117438 
-0.000284599 0.000338523 0.00032325 -1.07539e-05 0.000273757 -0.000187363 -0.000434559 -0.000613134 -0.00116521 -0.000857998 
-0.000350421 0.000619934 0.00201939 0.00270225 0.00324705 0.00261303 0.00148639 -0.000131985 -0.00193093 -0.00325702 
-0.00430095 -0.00446605 -0.00420113 -0.00330389 -0.00211831 -0.000821828 0.000570563 0.00163723 0.00269536 0.00323848 
0.00372435 0.00374444 0.00365153 0.00325304 0.00271582 0.00203188 0.00126137 0.000471534 -0.000318914 -0.000965912 
-0.00152543 -0.00179949 -0.00188593 -0.00166015 -0.00123656 -0.000617291 1.98767e-05 0.000650434 0.00111739 0.00138223 
0.00142163 0.00120565 0.000873963 0.000392168 2.10187e-05 -0.000226557 -0.000191027 -0.000137623 -8.83965e-05 0.000108093 
0.000787977 0.00104675 0.00104204 0.00369627 -0.000128582 0.00112694 0.00168775 0.000887751 0.000512694 7.55101e-05 
0.000458986 0.00267698 -7.6547e-05 -0.00208476 0.00132782 0.000930585 0.0027242 0.00289563 0.00403953 0.00363953 
0.00269217 -0.000380281 -0.000295256 -0.000435284 -0.000242754 0.000286115 0.000140518 0.000395461 0.000453161 0.000185251 
-0.00141832 -0.00176588 -0.000745867 -0.000628039 0.000145475 0.00100638 0.000360729 -0.000250175 0.000405341 -9.52312e-05 
0.000170057 0.000361926 -0.000223435 -0.000164572 -3.08726e-05 -0.000554337 0.000103946 2.99607e-05 0.000419218 0.000921519 
0.000715778 0.000535286 -0.000260962 -0.00136656 -0.00198389 -0.00270757 -0.00229485 -0.00163522 -0.000338764 0.00119793 
0.00238761 0.00356557 0.00382555 0.00390149 0.0031926 0.00230387 0.00115522 -7.26045e-05 -0.00108598 -0.0020728 
-0.00261947 -0.00309045 -0.00307634 -0.00303469 -0.00256106 -0.00213803 -0.00141493 -0.000796379 -6.77668e-05 0.00048776 
0.00100048 0.00123775 0.00134406 0.00113768 0.000846176 0.000340809 -0.000108501 -0.000602898 -0.000859712 -0.0010077 
-0.000804639 -0.000511612 5.75612e-05 0.000500415 0.000854671 0.000906837 0.000885638 0.000839872 0.000485024 -0.000330115 
-0.000650559 -0.000672766 -0.00329314 0.00101865 6.7134e-05 -0.0003053 0.000703186 0.000970332 0.000824203 0.000889438 
0.00105277 0.00037928 -0.00251321 -0.0006962 0.00109239 -0.000893512 -0.000824763 -0.00341494 -0.00337635 -0.00395554 
-0.00339202 -0.00211327 0.00060499 0.000313413 1.84707e-05 2.01152e-05 0.000493433 0.000595119 3.41087e-05 -0.00056796 
-0.00125746 -0.000817998 -0.000701592 -0.000225369 0.000856801 0.000740748 -0.000102915 0.00040479 0.000226336 -0.000299499 
0.000267345 -0.000186189 -0.000415666 0.000166771 -0.000260945 -8.82069e-05 0.000362648 -0.000162707 0.000243395 -0.000109706 
-0.000456696 -0.000192681 -0.000425956 0.000283293 0.000744944 0.00126191 0.00178448 0.00151172 0.00127661 0.000319965 
-0.000594448 -0.00153991 -0.00239487 -0.00268474 -0.00290132 -0.00240137 -0.0019482 -0.000998428 -0.000227336 0.000669191 
0.00135135 0.00181383 0.00215012 0.00207922 0.00197872 0.00147963 0.00103397 0.000314053 -0.000232791 -0.00090693 
-0.00126816 -0.00159745 -0.00153321 -0.00142653 -0.000951647 -0.000529877 7.61698e-05 0.000475374 0.000808048 0.000805141 
0.00067673 0.000289291 -1.46065e-05 -0.000173659 -0.000119813 1.92184e-05 2.0212e-05 0.000329994 0.000926642 0.000900079 
0.000742909 0.00333804 -0.00104497 0.000209842 0.00115277 0.000460504 0.000431479 0.000733059 0.000653584 0.000501699 
0.000168102 -0.000398835 -0.000358889 0.00143538 0.000806778 -0.000213843 0.000666237 0.000842923 0.0037117 0.00382457 
0.00397862 0.00282643 0.0014359 -0.000866872 -0.00045535 0.000475826 0.000676827 0.000100575 -3.07931e-05 -0.000356753 
-0.00113989 -0.00113078 -0.000496713 0.000500488 0.00055919 -0.000127235 -5.28545e-05 0.000232198 -0.000568707 -6.20315e-05 
9.61966e-05 -0.000379813 0.00017546 0.000284708 -0.000291695 0.000505911 8.11597e-06 -7.44989e-05 0.000267656 -0.000235443 
0.000131494 0.000205319 -0.000135288 0.000170928 -0.000593793 -0.000624094 -0.00104897 -0.00123254 -0.000836412 -0.000727607 
0.000209296 0.00063125 0.00140282 0.00177458 0.00187519 0.00189766 0.00133061 0.000995363 0.00014439 -0.000314311 
-0.00102018 -0.00132891 -0.00164152 -0.00162066 -0.00148823 -0.00114063 -0.000691342 -0.000178589 0.000350973 0.000783718 
0.00109501 0.00119461 0.00115398 0.000849984 0.000449883 -7.45943e-05 -0.000579179 -0.000924827 -0.00109653 -0.000971073 
-0.000684207 -0.000285388 -7.05967e-05 0.00013163 0.000268169 0.000645242 0.000624216 0.000225974 0.000390829 0.000249226 
-0.00277185 0.00136686 -0.000194617 -0.00133564 -0.000370379 0.000167602 0.000242218 0.000480512 0.000776985 0.000539906 
0.000203365 0.000904258 -0.000252213 -0.000474047 -0.000912047 -0.000738159 -0.000381964 -0.000573665 -0.000989189 -0.0034056 
-0.00389655 -0.00368317 -0.00190296 -0.00076912 0.0011088 0.000922146 0.00031721 0.000306404 6.05785e-05 -0.00117795 
-0.00161104 -0.000233848 0.000627208 0.000309486 -2.24777e-05 6.57756e-05 0.000263923 -0.000240861 -0.000104119 0.000544076 
-8.48843e-06 0.000118818 0.000458362 -0.000278017 -8.33426e-05 0.000215569 -0.000651841 6.13629e-05 -9.70323e-05 -0.000222676 
0.000325119 -0.000238596 -1.43755e-05 4.35476e-05 -0.000107753 0.000594669 0.000531942 0.00107808 0.0010757 0.00081828 
0.000619475 -0.000275464 -0.000629553 -0.00144868 -0.00163047 -0.00183682 -0.00164535 -0.00121714 -0.00077885 -3.71841e-05 
0.000387676 0.00105182 0.00124815 0.00158066 0.0014357 0.00140517 0.000934966 0.000623786 1.69388e-05 -0.000309136 
-0.000754918 -0.000826532 -0.000854468 -0.000485704 -0.000133231 0.000459652 0.000730539 0.00100314 0.000778397 0.000513287 
2.25374e-05 -0.000192219 -0.000415797 -0.000553845 -0.000842978 -0.000693946 -5.53583e-05 -0.000139287 0.0003364 0.00350976 
-0.000855525 0.000553876 0.0015867 0.000385336 -0.000326419 -0.000227834 1.29155e-05 0.000102428 0.000331449 0.000693801 
0.000727962 2.96865e-05 -0.00225071 -0.00014652 0.00113743 0.000940058 0.000898464 0.000812643 0.000797384 0.00157004 
0.00300876 0.00383044 0.00308173 0.00077414 0.000328004 -0.000408653 0.000309576 0.000114073 -0.000930505 -0.00115255 
0.000112484 0.000873711 -0.000311961 -0.000361622 0.000388854 0.000127405 -0.000300107 -0.000130411 0.000493399 -5.03181e-05 
-0.000291584 6.09224e-05 -0.00029557 -0.000520558 0.000264574 -0.000305742 -6.89614e-05 0.000662521 1.82193e-05 0.000329455 
0.000194613 -0.000353887 0.000248141 -0.000231651 8.60387e-05 0.000105184 -0.000333642 -0.000153002 -0.000807381 -0.000629868 
-0.000761837 -0.000525201 2.94897e-05 0.000272834 0.00102092 0.00105886 0.00143041 0.00113575 0.000936602 0.00040119 
-0.000100818 -0.000589832 -0.000985936 -0.00110006 -0.00116975 -0.000808847 -0.000533635 5.69477e-05 0.000367631 0.000842534 
0.00087625 0.000957168 0.000594944 0.000347971 -0.000140427 -0.000271449 -0.000449475 -0.000209197 -1.93881e-05 0.000244638 
0.000240577 0.000180769 0.00024112 0.000420824 0.000349101 -0.000212023 0.000201208 -0.000206125 -0.00325201 0.00146759 
3.27267e-05 -0.001211 -0.000183345 0.000465128 0.000210638 -0.000189017 -0.000209984 -2.62255e-05 6.36198e-05 0.000322937 
0.000317222 -0.00153844 -0.00115485 0.00280807 0.00113808 -0.0010033 -0.000945341 -0.00100174 -0.000750874 -0.000735171 
-0.00202999 -0.00236872 -0.00343623 -0.00195328 0.00102032 0.00146044 0.00136908 -0.000332664 -0.000142038 0.000323188 
4.3437e-05 -0.00101613 -0.000830222 0.000956944 0.000275596 -0.000691442 -1.50277e-05 0.000527048 -0.000185194 -0.000483426 
0.000198921 -2.27031e-05 -0.000175763 0.000345011 0.000319232 -0.000156821 0.000634399 7.2988e-06 -0.000471017 -3.50418e-05 
-0.000546557 -0.000157543 0.000132804 -0.000212844 0.000344966 -9.47388e-05 7.9579e-05 0.000208005 5.26086e-05 0.000546562 
0.000307681 0.000636497 0.000411239 0.000303704 0.000108021 -0.000290445 -0.000381201 -0.00076465 -0.000632746 -0.00083136 
-0.000488016 -0.000483204 -8.02226e-05 3.92562e-05 0.000332541 0.000350391 0.000440849 0.000288962 0.000115765 -0.000155103 
-0.000386031 -0.000542855 -0.000561155 -0.000477726 -0.000313798 -0.000145237 -1.87631e-07 5.93347e-05 0.000215602 0.000346748 
0.000516272 0.000255072 -8.5825e-05 -0.000251347 0.000100993 -0.000604074 -0.000200604 0.0028831 -0.00205165 -0.000421816 
0.00114064 0.000313508 -0.000346467 -0.000110214 0.000290996 0.000243302 -6.49176e-05 -0.000210643 -0.000173794 -9.21867e-05 
-0.000322383 -0.0011589 0.00138361 0.00231272 -0.00220968 -0.00166515 0.000647699 0.00116061 0.00150596 0.000824172 
0.000682912 0.00241432 0.00174203 0.00304343 0.0013984 -0.00111413 -0.0014816 -0.00124579 -1.94249e-05 -0.00148799 
-0.0014007 5.57174e-05 0.00167433 0.000662263 -0.00125977 0.000142979 0.000922998 -0.000209297 -0.000553752 0.000666714 
0.000250038 -0.00025843 0.000288905 0.000222245 -0.000342392 5.13295e-05 -5.12182e-06 -0.000651284 7.23963e-05 0.000215433 
1.28861e-05 0.000571988 6.32153e-05 0.000161326 0.000246312 -0.000124228 0.000363308 1.68334e-05 0.00025159 0.000198526 
9.47456e-05 0.000342229 0.000137605 0.000550949 0.000391382 0.000649146 0.000476518 0.000316017 9.01572e-07 -0.000529001 
-0.000919532 -0.001529 -0.0016643 -0.00194343 -0.00151228 -0.00128442 -0.00041203 0.000101943 0.000910812 0.00110362 
0.00129727 0.000843968 0.000522636 -0.000139026 -0.000357311 -0.000623496 -0.000445329 -0.000465264 -0.000362702 -0.000422099 
-8.43778e-05 0.000275845 0.000377286 0.000108517 0.000956079 0.000484479 -0.00269682 0.00235726 0.000459635 -0.00154449 
-0.000952293 -0.0002532 -0.000322836 -0.000520567 -0.000304631 0.000112066 0.000233232 0.000138428 -0.000101578 -0.000273011 
-0.000231475 0.000115185 0.00152568 -0.000517908 -0.00241917 0.00155622 0.00206932 0.000153784 -0.000984775 -0.00191801 
-0.000947802 -0.000530173 -0.00239694 -0.000576786 -0.00111826 0.00114706 0.00250574 0.00190866 0.000493083 -0.000478484 
0.00223335 0.00187367 -0.000398369 -0.00209233 3.67479e-05 0.00145097 -0.000658083 -0.000990488 0.000616065 0.000327109 
-0.00103978 0.000104553 0.000157463 -0.00059533 -0.000151765 0.000201517 -0.000338978 0.000181032 0.000435475 -0.000186787 
3.39661e-05 -6.98251e-05 -0.000308794 0.000108019 -0.000122984 4.58322e-06 0.00011071 -0.000157731 0.000262902 0.000134818 
0.000610195 0.000786074 0.000994151 0.00121562 0.00102073 0.00107132 0.000547522 0.000429511 -0.000268024 -0.00046996 
-0.00103249 -0.00123569 -0.00143065 -0.00142801 -0.00112283 -0.000784893 -0.000113528 0.000366009 0.0010278 0.0012593 
0.00147081 0.00106186 0.00070018 -9.17726e-05 -0.000522185 -0.000882173 -0.000622743 -0.000125341 0.000415517 0.000473715 
0.000102226 -5.85885e-05 -0.000104233 -0.00121506 -0.000593611 0.00270351 -0.00240583 -0.000446341 0.00175251 0.00100075 
-7.23345e-05 -0.000380081 -0.000399174 -0.00051996 -0.000649085 -0.00036536 -0.000100049 0.000176108 0.000232253 -9.07536e-05 
0.000174727 0.000245807 0.000115856 -0.000981008 0.000302701 0.00230401 -0.000813245 -0.00202524 -0.000889376 0.000589204 
0.00211904 0.0011996 0.000526757 0.00265542 0.000670857 0.000507971 -0.00263658 -0.00335318 -0.00257212 -0.000567931 
-0.000224254 -0.00335684 -0.00213407 0.00116537 0.00229556 -0.00110066 -0.00145352 0.00123336 0.000855597 -0.0010738 
0.000167092 0.00106346 -0.000511401 7.53556e-05 0.000852029 -5.16805e-05 0.000133482 0.000426627 -0.000277057 -9.67082e-05 
0.000239814 -0.000117017 0.000277961 0.000133664 2.13752e-05 0.000286561 0.000155956 0.00064672 0.000827871 0.00113421 
0.00151115 0.00148879 0.00190777 0.00177759 0.00211992 0.00209385 0.00205124 0.00199687 0.00131078 0.000796461 
-0.000432198 -0.00130155 -0.00255353 -0.00307192 -0.00351039 -0.00299783 -0.00224491 -0.000847715 0.000395312 0.00163857 
0.0023241 0.00246602 0.00204552 0.00119992 0.000163495 -0.000786963 -0.00148429 -0.00143749 -0.000776179 0.000308214 
0.000685321 0.000635305 0.0015357 0.000281477 -0.00307508 0.00229263 0.000713508 -0.00150484 -0.000671628 0.000360095 
0.000438287 9.78237e-05 -0.000245225 -0.000412478 -0.000756032 -0.000662647 -0.000440161 -0.000164025 0.000299992 0.000109439 
0.000159972 -0.000495338 -7.3885e-05 0.000511174 0.000865538 -0.000411114 -0.00205028 0.000253439 0.00180617 0.00135968 
-0.000210713 -0.00209398 -0.00133835 0.000216884 -0.00113176 0.0008467 0.0011929 0.00407536 0.00335318 0.00215491 
0.000265599 0.0013761 0.00452715 0.00213646 -0.0021962 -0.00200253 0.00239705 0.00124305 -0.00179566 -0.000351467 
0.00140958 -0.000792581 -0.00070796 0.000869985 -0.00045813 -0.000787728 0.000323698 -0.000483033 -0.000304638 0.000313203 
-0.000220475 1.60028e-05 0.000118779 -9.56743e-05 0.000369197 0.0004686 0.000678671 0.00110047 0.000955957 0.00157295 
0.0017278 0.00240865 0.00323687 0.003883 0.00492068 0.00521382 0.00561509 0.00504679 0.00424594 0.0026115 
0.000682069 -0.00144502 -0.0036299 -0.00508409 -0.00614259 -0.00584161 -0.00501586 -0.00294427 -0.000997352 0.00116182 
0.00237736 0.00289663 0.00232199 0.00131302 7.84444e-05 -0.000694605 -0.00122598 -0.00133938 -0.00118524 -0.00029313 
0.000588615 -0.000432254 0.000703151 0.0031803 -0.00288635 -0.00169878 0.000960187 0.000510408 -0.000214228 -0.000144431 
0.00015889 0.000315149 0.000139938 6.98874e-05 -0.000377847 -0.000722835 -0.000705583 -0.000698697 -1.54714e-06 0.000247563 
-0.000266098 -0.000664606 0.00105433 0.000798005 -0.00103704 -0.00127002 0.000556924 0.00188393 6.4258e-05 -0.00180391 
-0.00183941 -0.000183327 0.00202563 0.00222727 0.000289536 0.000341399 -0.00214305 -0.00314438 -0.00563414 -0.00344914 
-0.00150818 -0.000112556 -0.00282163 -0.00541077 -0.00160678 0.00331021 0.0010769 -0.00366073 -0.000689017 0.0022648 
-0.000636049 -0.00148041 0.00130144 3.1526e-05 -0.00108641 0.000931417 0.000222771 -0.000459418 0.000713016 7.85316e-05 
-0.000159228 0.000518267 -0.000140199 0.000465736 0.000388341 0.000229357 0.000694496 0.000697638 0.00156839 0.00244758 
0.00337608 0.00497133 0.00603047 0.00772331 0.00887045 0.00994315 0.0106634 0.0104045 0.00977078 0.00751192 
0.00485982 0.000983932 -0.00282419 -0.00658649 -0.00925282 -0.0104466 -0.0099445 -0.00754479 -0.00405777 2.52456e-05 
0.00344925 0.00559153 0.00575932 0.00416754 0.00141772 -0.00115565 -0.00262474 -0.0027394 -0.00218136 -0.0011384 
0.00167263 0.000811354 -0.00175197 0.00366248 0.00189292 -0.00148041 -0.00107835 -8.65004e-05 0.000156128 -3.24761e-05 
-0.000183257 -0.000118426 -0.00011968 9.7477e-05 0.00015341 -0.00023796 -0.000357227 -0.000877783 -0.000717594 0.000201124 
-0.000594517 8.58861e-06 0.00160147 -0.000785223 -0.00187681 0.000906409 0.00190051 -0.000605196 -0.00210656 -0.000747109 
0.00161541 0.00209259 0.000625125 -0.00103816 -0.00181994 0.000167017 0.00105225 0.00363255 0.00477649 0.00639378 
0.00308772 0.00057453 0.000309909 0.00439656 0.00581508 0.000384993 -0.00421597 0.000434919 0.00460917 -0.000303674 
-0.00240927 0.00201374 0.00117681 -0.00157298 0.000881569 0.0010188 -0.00120711 0.000746646 0.00036773 -0.000683851 
0.000473918 9.89115e-05 3.47694e-05 0.000745537 6.13762e-05 0.00114866 0.0017136 0.00227221 0.00377266 0.00434566 
0.00630542 0.00806493 0.0102575 0.0131179 0.0155143 0.0183513 0.0198742 0.0207157 0.0198033 0.0171765 
0.0128651 0.00688023 0.000393431 -0.00626208 -0.0115007 -0.0148953 -0.015511 -0.0135035 -0.00923484 -0.00368275 
0.00184113 0.00624227 0.00847165 0.00828101 0.00565362 0.00174066 -0.00194031 -0.00361046 -0.00339125 -0.00366704 
0.000206596 0.0040783 -0.00151032 -0.000987355 0.00141563 0.000310583 -0.000786382 -0.00068224 3.42591e-05 0.000409328 
0.000349648 4.42745e-05 -0.000275823 -0.000365989 6.20678e-05 -5.20542e-05 0.000124418 -0.00021181 -0.00111916 -7.22841e-05 
-0.000433779 0.00076855 0.000887689 -0.00205856 -0.000278156 0.00249954 -0.000290844 -0.002663 -7.92053e-05 0.0019521 
0.00133179 -0.00153702 -0.00214564 -0.000239808 0.000960453 0.00173227 -0.000714175 -0.00277462 -0.00563429 -0.00644735 
-0.0065402 -0.00227261 0.000516731 -0.000924811 -0.00588707 -0.00557273 0.00155357 0.00467087 -0.00224778 -0.00494155 
0.00170952 0.00191729 -0.00340736 -0.000416568 0.00163428 -0.001908 -0.000481091 0.00102397 -0.00162075 0.000128767 
0.000585488 -0.000801073 0.000656562 3.87684e-05 0.000683411 0.00193536 0.0013995 0.00305391 0.00411954 0.00609699 
0.00941252 0.012308 0.0172654 0.0216027 0.0268283 0.0316238 0.0354093 0.0381654 0.0380331 0.0356637 
0.0296331 0.0210731 0.0100079 -0.00168568 -0.0125033 -0.0204933 -0.0243985 -0.02341 -0.0182831 -0.0100289 
-0.00130182 0.00627151 0.0105197 0.0114741 0.00906054 0.00468326 -0.000625257 -0.00434334 -0.00354645 -0.00461845 
-0.0043403 0.00425993 0.00463106 0.000900511 6.23465e-05 -0.000113068 -0.000547639 -0.000846538 -0.000487018 -3.05386e-05 
0.000419965 0.000381927 0.000112594 -0.000501811 -0.000211672 -0.000183985 3.51487e-05 0.000614259 -0.000786678 -0.000350281 
-7.48073e-05 0.000879796 -0.000277856 -0.00169228 0.00162037 0.00132137 -0.00263095 -0.000928086 0.00259779 0.000678396 
-0.00185944 -0.00224728 0.00141327 0.00286379 0.000665865 -0.000567155 -0.00137639 0.00137616 0.00434551 0.00761031 
0.00783761 0.00609413 0.00108966 -0.0014285 0.00202819 0.00713611 0.0045076 -0.00407904 -0.00454909 0.00400899 
0.00441427 -0.00332348 -0.000685594 0.00423471 -0.000844569 -0.00138477 0.00287895 -0.000438469 -0.000246136 0.00219744 
-0.000593926 0.000451667 0.00163716 3.36309e-05 0.00216646 0.00143673 0.0024364 0.00531003 0.00628868 0.0105587 
0.0141098 0.0193628 0.0262128 0.032996 0.0422012 0.0503146 0.0587177 0.064545 0.0675127 0.065955 
0.0591067 0.0471798 0.0307902 0.0118243 -0.00718371 -0.0234003 -0.0341695 -0.0377251 -0.0339287 -0.0237468 
-0.0102489 0.00321146 0.0128916 0.0167116 0.0147851 0.00897927 0.00165924 -0.00657583 -0.00652748 -0.00344639 
-0.00649064 -0.00199452 0.00396455 0.00415363 0.00157129 -0.000416858 -0.00116572 -0.00113667 -0.000420808 -4.05282e-05 
0.000329934 0.000359624 0.000464567 -0.000232006 -0.000321222 -0.000225825 -0.000525707 0.000833534 3.73793e-05 -0.000418867 
0.000155405 0.00052045 -0.00075639 -0.00040243 0.00178726 -0.000908887 -0.002144 0.00186092 0.00160555 -0.00239443 
-0.00161305 0.00121446 0.00323725 -0.00041705 -0.0029482 -0.00112848 0.000193288 0.000786592 -0.00233336 -0.00585173 
-0.00932561 -0.00867525 -0.00508564 0.00029713 0.00171183 -0.00366821 -0.00798173 -0.00240452 0.00692022 0.00382269 
-0.00547247 -0.00289722 0.00479462 -0.000999476 -0.0040085 0.00250964 0.000594208 -0.00325012 0.00172045 -0.000486455 
-0.00168443 0.00184697 -0.000601664 0.000406817 0.00247561 0.00143488 0.00534557 0.00650263 0.00952191 0.0151421 
0.0198384 0.0291675 0.0386104 0.0513413 0.0650446 0.0790716 0.0932839 0.104126 0.11163 0.111872 
0.105288 0.0894087 0.0669737 0.0381918 0.00869565 -0.0193842 -0.0399562 -0.0517311 -0.0518455 -0.0426844 
-0.0256236 -0.00645696 0.0112783 0.0215846 0.0233975 0.0171168 0.00896405 -0.00466395 -0.0132683 -0.00737139 
-0.00439438 -0.00246476 0.00164144 0.00465331 0.00379574 0.00103323 -0.00108823 -0.00195158 -0.00109314 -0.000111081 
0.000428956 0.000281546 0.00044418 3.52241e-05 -0.00031214 0.000158653 -0.000817217 0.00022906 0.00065326 -0.000178841 
0.000172148 0.000226248 -0.000424784 0.000409888 0.00058699 -0.00155045 0.00011785 0.00207161 -0.00133039 -0.0022611 
0.00154276 0.00208781 -0.000212599 -0.00340168 -0.000379916 0.00290177 0.00181721 0.000154592 -0.000237012 0.00329143 
0.00713034 0.0104421 0.008692 0.00362547 -0.00154801 -0.000924563 0.00578535 0.00815912 -0.000836472 -0.0095509 
-0.00239255 0.00652275 0.000388007 -0.00575408 0.0026625 0.00268566 -0.0040933 0.000909869 0.0026168 -0.00274735 
0.00166212 0.00129668 -0.0012072 0.00315236 0.00133078 0.00286433 0.00647534 0.00665136 0.0133815 0.0185083 
0.0275088 0.0399199 0.0532897 0.0726299 0.0921009 0.115922 0.138135 0.15916 0.174264 0.180893 
0.176291 0.158113 0.128159 0.0869379 0.0417234 -0.00388798 -0.0405356 -0.0654327 -0.0730576 -0.0662646 
-0.0463037 -0.0211129 0.00469169 0.0236413 0.031757 0.0261206 0.0177703 0.00551856 -0.0129801 -0.0165295 
-0.00998803 -0.0026632 0.00226561 0.0048546 0.00451703 0.00174098 -0.000809491 -0.00219519 -0.00180748 -0.000326902 
0.000734671 0.000554697 0.000363494 0.000155545 -0.000636188 0.000380189 -0.00033809 -0.000439419 0.000660358 0.000136657 
5.2939e-05 0.000246353 -8.19589e-06 0.000135416 -0.000459984 -0.000433226 0.00118692 -7.1991e-05 -0.00216162 0.000608834 
0.00228722 -0.000865296 -0.00217248 -0.000344061 0.00344351 0.0012255 -0.00255858 -0.00268122 -0.000737484 -0.000366996 
-0.00402459 -0.00788453 -0.0105224 -0.00765371 -0.0019326 0.00216331 -0.00116896 -0.00813544 -0.00734319 0.00491798 
0.0111575 9.40679e-05 -0.00692549 0.00295862 0.0059179 -0.00396199 -0.000428072 0.00518476 -0.00229344 -0.000295292 
0.00397513 -0.00170132 0.00184823 0.00335515 0.000880624 0.006616 0.00671768 0.0110406 0.0189515 0.0246744 
0.0386784 0.0523861 0.0733575 0.0986713 0.12754 0.162109 0.195271 0.229436 0.254645 0.271844 
0.271669 0.255386 0.218545 0.166219 0.101806 0.0349218 -0.0261944 -0.071813 -0.0963652 -0.0971062 
-0.0777215 -0.0447319 -0.00913485 0.0218488 0.0409183 0.0385247 0.0238992 0.0122697 -0.00538262 -0.0186735 
-0.0179938 -0.00833334 0.00226738 0.00768334 0.00764694 0.00368653 -0.000730215 -0.00285632 -0.00292776 -0.00117898 
0.00078942 0.00112007 0.000465852 0.000478191 -0.000849997 -6.5463e-05 0.000338853 -0.000580868 0.000300544 0.000336763 
6.40339e-05 0.000480035 2.97876e-05 -0.00050483 -0.000241103 0.000925827 0.00015602 -0.00161706 -0.00018899 0.0021041 
-0.000295247 -0.0024606 0.0003617 0.00254797 0.000935297 -0.003264 -0.00202816 0.00188975 0.00350136 0.00166857 
0.0011344 0.00430018 0.00769779 0.00918696 0.00551596 0.000332974 -0.00167706 0.00439687 0.0103117 0.00539288 
-0.0090197 -0.0109526 0.00298137 0.0062064 -0.00653857 -0.00486861 0.00497939 -0.00228317 -0.00496543 0.00359616 
-0.0018145 -0.00260411 0.00394041 -0.00101927 0.00257351 0.00654019 0.00572491 0.0152012 0.0197397 0.0309009 
0.0476205 0.0658292 0.095679 0.127183 0.169642 0.215133 0.265186 0.31452 0.356252 0.387198 
0.395848 0.383189 0.340356 0.276149 0.190093 0.0990499 0.00900081 -0.0623066 -0.11097 -0.127019 
-0.115749 -0.0794134 -0.0340298 0.00887066 0.0444261 0.0569701 0.0404439 0.0169207 -0.00275579 -0.0190949 
-0.0231414 -0.0159559 -0.0026664 0.00765926 0.0103299 0.00693772 0.000805952 -0.00297469 -0.00362792 -0.00218459 
0.000290083 0.00165542 0.000628436 0.000695019 -0.00058104 -0.000860273 0.000601181 -0.000160736 -2.46376e-05 0.000341 
0.00017752 0.000584029 -0.000373006 -0.000768763 0.000738058 0.00101699 -0.00157975 -0.000825394 0.00195251 0.000531264 