# vtk DataFile Version 2.0
Titre
ASCII
DATASET STRUCTURED_POINTS
DIMENSIONS 100 100 1
ORIGIN 0.0 0.0 0.0
SPACING 0.1 0.1 0.0
POINT_DATA 10000 
SCALARS rho float
LOOKUP_TABLE default
0.000423437 -0.00136585 0.00032541 0.00112824 -0.00036853 -0.000381836 -0.000107444 -3.56988e-05 2.82834e-05 0.00018983 
0.00029019 -1.6762e-05 -0.000406621 -0.000363936 0.00012005 0.000737739 0.000938529 0.000485904 -0.00033328 -0.000813871 
-0.000482335 0.000109034 0.000247186 8.41888e-05 0.000133946 0.000432667 0.00064056 0.00065622 0.000677451 0.000929507 
0.00140094 0.00194425 0.00246003 0.00294917 0.00347211 0.00409766 0.00485476 0.00562527 0.00625458 0.00657751 
0.00644646 0.00579822 0.00459116 0.00279409 0.00039088 -0.00262767 -0.00620043 -0.0101419 -0.0141049 -0.0175524 
-0.0198032 -0.0201326 -0.0179262 -0.0128953 -0.00526595 0.00407226 0.0135703 0.0212179 0.0249612 0.0233088 
0.0159502 0.0041991 -0.0090117 -0.0197583 -0.0243166 -0.0206491 -0.00956758 0.0050273 0.0172986 0.0217918 
0.0160816 0.00241454 -0.0127417 -0.0216354 -0.0193471 -0.00683576 0.00919289 0.0198907 0.0196192 0.00947482 
-0.00347492 -0.0110482 -0.00949894 -0.00184492 0.00504997 0.00611885 0.0019482 -0.00273427 -0.00377755 -0.00139307 
0.00115784 0.00130787 -0.000234128 -0.00104433 -0.000236451 0.000729836 0.000832495 -5.47707e-05 -0.000336117 -0.000434177 
-0.00135875 -0.00101072 0.00232055 -0.000179754 -0.000352305 -0.000226784 -0.000228403 0.00045189 3.93247e-07 -0.000307615 
-0.000216719 -0.000241225 -6.42737e-05 0.000366727 0.000884345 0.000699238 -0.000482844 -0.0017078 -0.00183742 -0.000391156 
0.00116399 0.00119381 0.000363378 0.00015434 0.000599337 0.00076618 0.000477008 0.000272327 0.000514886 0.00096515 
0.00120299 0.00115442 0.00105347 0.00120305 0.00174714 0.00273354 0.00399517 0.00537503 0.00689231 0.00863295 
0.0107649 0.0133928 0.0163803 0.0194218 0.0219914 0.0234485 0.023151 0.020539 0.0152571 0.00728988 
-0.00295771 -0.0145361 -0.0259597 -0.0353011 -0.0404468 -0.039557 -0.031599 -0.0169377 0.00231995 0.0223528 
0.038272 0.0453492 0.0406251 0.0243788 0.000797426 -0.0227337 -0.0378723 -0.0385586 -0.0239889 0.000194848 
0.0236211 0.0355781 0.0303513 0.0106805 -0.013039 -0.028045 -0.0264663 -0.0101477 0.010296 0.0222604 
0.0193385 0.00540832 -0.00874988 -0.0136365 -0.00792759 0.00167298 0.0068113 0.0047077 -0.000652844 -0.00342238 
-0.00176045 0.00129593 0.00216668 0.000527153 -0.000922215 -0.000716345 0.000218509 0.000587071 0.000126333 -0.000883865 
0.000493677 0.00280195 0.000990011 -0.00175906 -0.000173725 -0.000337586 0.000533988 0.000142858 -0.000791491 -9.63465e-05 
0.000151471 5.46002e-05 0.000343705 0.000849052 0.000835776 -0.000279047 -0.00124225 -0.000946645 0.000639616 0.00192201 
0.000934627 -0.000936377 -0.00114322 3.13528e-05 0.000574429 8.01455e-05 -0.000371507 -0.000275453 -0.000113078 -0.000506759 
-0.00134432 -0.00213892 -0.0025495 -0.00267276 -0.00274866 -0.00299544 -0.00356426 -0.00420831 -0.00455682 -0.00428055 
-0.00309059 -0.000970758 0.00200495 0.00574529 0.0100944 0.0149167 0.0199642 0.0247953 0.0287711 0.0310382 
0.0306583 0.026831 0.019112 0.00774033 -0.00619259 -0.0206728 -0.0329578 -0.0400912 -0.0396337 -0.0305641 
-0.0139817 0.00664912 0.0260256 0.038386 0.0394291 0.0281918 0.00798482 -0.0142616 -0.0303803 -0.0343296 
-0.0250713 -0.00737225 0.0102279 0.0196445 0.0174638 0.00675514 -0.00494826 -0.0103591 -0.00701802 0.00152601 
0.00859088 0.00939777 0.00426423 -0.00226577 -0.00550262 -0.00416977 -0.000703607 0.00156055 0.00139226 -8.64297e-05 
-0.00102998 -0.000863834 -0.0001396 0.000330398 0.000380326 0.000197264 -3.37859e-05 -0.00017074 0.000875898 0.000985636 
0.000606709 -0.000827084 -0.00269884 -0.0011923 0.000928816 0.000279113 0.000402727 -0.000922344 -0.000138018 0.000670956 
-9.98537e-05 3.35063e-05 0.000771861 0.0010028 -1.98956e-05 -0.00121679 -0.00117739 -0.000159629 0.000841097 -1.48435e-05 
-0.00173607 -0.00123588 0.000849798 0.0014532 9.62405e-05 -0.00116038 -0.00144718 -0.0015784 -0.00235566 -0.00354074 
-0.00446136 -0.00497853 -0.00544008 -0.0063163 -0.00760278 -0.00921651 -0.0108626 -0.0121261 -0.0129034 -0.0131919 
-0.0130762 -0.0126772 -0.0118188 -0.0102868 -0.00777894 -0.00404909 0.000930671 0.00696096 0.0135961 0.0201077 
0.0256219 0.0291523 0.0297676 0.0268208 0.0201061 0.0101545 -0.00174306 -0.0135423 -0.0228219 -0.027326 
-0.0256963 -0.01809 -0.00645552 0.0058249 0.0149201 0.0179719 0.0143331 0.00605668 -0.00289323 -0.00841755 
-0.00841633 -0.0038859 0.00161664 0.00428292 0.00256999 -0.00159304 -0.00421879 -0.00231839 0.00339894 0.00876639 
0.0093134 0.00412164 -0.00305474 -0.0068377 -0.00490128 -6.41406e-06 0.00290142 0.00154821 -0.00155323 -0.0024916 
-0.000364163 0.00186376 0.00159838 -0.000418519 -0.00122629 -0.000129926 0.000913511 -0.000324409 -0.000931639 -0.000431694 
3.5667e-06 -0.000691793 0.000975659 0.00218226 0.00118426 -0.000602601 -0.000535932 -0.000521467 0.000867285 -0.000240068 
-0.000539442 0.000870825 0.00129714 0.000325035 -0.00107303 -0.00126898 -0.000461875 0.00063336 0.000648992 -0.000915633 
-0.00097811 0.00077154 0.000883284 -0.00124386 -0.0027837 -0.00253154 -0.00198166 -0.00226597 -0.00307829 -0.00357067 
-0.0037661 -0.00415114 -0.00513067 -0.00654598 -0.00803902 -0.00968022 -0.011378 -0.0132414 -0.015548 -0.0182952 
-0.0214002 -0.0244712 -0.0269635 -0.0284232 -0.0283523 -0.026427 -0.0224207 -0.0162249 -0.00797159 0.00189786 
0.0125768 0.0227923 0.0309876 0.0354876 0.0348857 0.0285342 0.0168896 0.00184567 -0.0134831 -0.0252719 
-0.0300718 -0.0260247 -0.0139016 0.00261417 0.0177728 0.0257362 0.0230476 0.010597 -0.00623447 -0.0195984 
-0.0230037 -0.0148925 2.25607e-05 0.0130991 0.0167935 0.00956599 -0.00285104 -0.0111932 -0.00930841 0.00103974 
0.0114077 0.0132567 0.00518072 -0.00592898 -0.0109384 -0.00673245 0.0013163 0.00509035 0.00200829 -0.00310083 
-0.0040852 -0.00061886 0.00250632 0.00179495 -0.00084625 -0.00152426 0.000747049 0.00134192 0.000603943 -0.00032052 
8.75796e-05 0.00041175 0.000309257 -0.0012636 -0.00216361 -0.00140896 0.000157323 0.000434881 0.000236505 -0.000787323 
0.00109821 0.00176549 0.000418905 -0.000958218 -0.00137149 -0.000830161 5.4205e-05 0.000656276 -0.000700078 -0.00191532 
-0.000459364 0.000527968 -0.000819719 -0.00180478 -0.000826603 0.000319217 0.000253292 -0.000371832 -0.000469979 2.48226e-05 
0.000455283 0.000675015 0.00077368 0.00115668 0.00148963 0.00137211 0.000880837 -0.000245848 -0.00212802 -0.00468621 
-0.008002 -0.0120001 -0.0167943 -0.0223276 -0.0283494 -0.0343448 -0.03945 -0.0425999 -0.042704 -0.0388117 
-0.0304179 -0.0177051 -0.00166787 0.015694 0.0316645 0.0430752 0.0470886 0.0419846 0.0279995 0.0077726 
-0.0138773 -0.031024 -0.0384344 -0.0335844 -0.0180668 0.00243255 0.0199757 0.0275816 0.02252 0.00788475 
-0.00858654 -0.0184794 -0.0172354 -0.00687133 0.00540076 0.0118034 0.00935128 0.00162677 -0.00410677 -0.0030898 
0.00307904 0.00775398 0.00556424 -0.00232105 -0.00900681 -0.00851579 -0.00188728 0.00393515 0.00358206 -0.0012333 
-0.0040997 -0.00196744 0.00183733 0.00261388 0.000288067 -0.0021342 -0.000854033 0.000263718 0.000269881 -4.10432e-05 
0.00039016 -0.000326533 -0.000990845 -0.000465903 0.00121545 0.00207775 0.00145826 4.43172e-05 -0.000330008 0.000426429 
0.00170823 -1.6524e-05 -0.00101294 -0.00107035 -0.000944876 -0.000411668 0.000645195 0.000217077 -0.00169299 -0.000825402 
0.00142091 0.000918556 -0.000476452 -6.11649e-05 0.00106376 0.00130056 0.00128441 0.0020786 0.00374564 0.00543031 
0.00700358 0.00866519 0.0104898 0.0124593 0.0139684 0.0153926 0.0169696 0.0182527 0.0191737 0.0194517 
0.018681 0.0165878 0.0128487 0.00746858 0.000506038 -0.00769736 -0.0166973 -0.025857 -0.0343446 -0.0411085 
-0.0449827 -0.0448188 -0.039764 -0.0296587 -0.0151997 0.00169381 0.0182418 0.0310411 0.0371022 0.0346722 
0.0241974 0.00852284 -0.00763947 -0.0192126 -0.0226363 -0.0175132 -0.00689318 0.00386492 0.00982241 0.00884583 
0.00295393 -0.00318313 -0.00512464 -0.00193234 0.00333977 0.00573978 0.00278075 -0.00330274 -0.00675121 -0.0034111 
0.00502486 0.0113467 0.00880435 -0.00204955 -0.012774 -0.0140766 -0.00503079 0.00545303 0.00754911 0.000645031 
-0.00627732 -0.00538836 0.000812697 0.00414645 0.00236193 -0.00162347 -0.00110047 0.000879118 0.000712021 -0.000316177 
-0.00014644 -0.000835731 4.83316e-05 0.00126883 0.000727348 -0.00108088 -0.00209964 -0.00161254 -0.000153776 0.000814531 
0.000464972 -0.000432078 0.000235213 -0.000529478 -0.000979065 0.000263218 0.000986473 -0.00106261 -0.00166137 0.00115145 
0.00184843 8.66101e-05 6.9907e-05 0.0017729 0.00313004 0.0039078 0.00497261 0.00661914 0.00829569 0.00965579 
0.0112615 0.0129176 0.0148343 0.0169176 0.0191968 0.0224077 0.0259283 0.029255 0.0325697 0.0355001 
0.0379143 0.039575 0.0401933 0.0393904 0.0367099 0.0317523 0.0241774 0.0140655 0.00185972 -0.0114302 
-0.0243701 -0.0351635 -0.0420044 -0.043366 -0.0384789 -0.0277225 -0.0127827 0.00334257 0.0170431 0.024893 
0.0249669 0.0176229 0.00584833 -0.00571079 -0.012401 -0.0118354 -0.00506819 0.00348892 0.0084874 0.00654958 
-0.0011996 -0.00959684 -0.0123375 -0.00661059 0.00458164 0.0135912 0.0135797 0.00395027 -0.00822029 -0.0130901 
-0.00618511 0.00696926 0.0144044 0.00829753 -0.00713554 -0.018324 -0.014857 -0.000417521 0.0106606 0.00830462 
-0.00274431 -0.00862017 -0.00368483 0.00316658 0.0045686 -0.000622374 -0.00292529 -0.000401619 0.00126836 -6.75693e-05 
-0.000558976 0.000156756 0.00103587 0.000430439 -0.00130862 -0.00106703 0.000695023 0.00196359 0.00205669 0.00145904 
0.000899072 0.000629152 -0.00066165 -0.00249418 -0.000778658 0.00143431 6.56293e-05 -0.00200288 0.000435029 0.00289715 
0.00142162 0.000636836 0.00219773 0.00358471 0.00389544 0.00375073 0.00407367 0.00494279 0.00548903 0.00592128 
0.00636627 0.00655575 0.00725615 0.00808194 0.00942679 0.0113705 0.0130734 0.0152833 0.0184952 0.0225016 
0.0274857 0.0331269 0.0390883 0.0447244 0.0494393 0.0523773 0.0528272 0.050152 0.0438209 0.0337939 
0.0203872 0.0047317 -0.0114775 -0.0258209 -0.0358359 -0.0392936 -0.0352182 -0.0242274 -0.0089502 0.00651178 
0.0176625 0.0211655 0.0163718 0.00582082 -0.00543948 -0.0120887 -0.0110968 -0.00352858 0.00578155 0.0108687 
0.00827454 -0.000450034 -0.00934191 -0.011847 -0.00557331 0.00551524 0.0132417 0.0113874 0.000844481 -0.0101238 
-0.012232 -0.00327085 0.00877132 0.0119612 0.00186314 -0.0131342 -0.0185404 -0.00853415 0.00691477 0.0126047 
0.00390419 -0.00739585 -0.00715103 0.000474447 0.00606427 0.00275575 -0.00228946 -0.00176022 0.000918768 0.000490205 
-0.000490228 0.000889482 0.000172926 -0.00091884 -0.000803792 0.00110974 0.00121184 -0.000225918 -0.00103958 -0.000694288 
-0.000473886 -0.00144575 -0.00274687 -0.000881566 0.00266185 0.00176078 -0.00154173 -0.000633428 0.00289275 0.0022671 
0.000260185 0.000901077 0.00178143 0.00171579 0.00104053 0.000397316 0.000542232 0.000203223 -0.00149473 -0.00347262 
-0.00593133 -0.00823623 -0.0101073 -0.0124675 -0.0144164 -0.0163098 -0.017949 -0.0179785 -0.0168034 -0.0144657 
-0.0107085 -0.00561551 0.000861821 0.00857408 0.0173449 0.0265431 0.0356259 0.0434817 0.0490431 0.0512242 
0.0490467 0.0422047 0.0308745 0.0163408 0.000539287 -0.0137267 -0.0238117 -0.027522 -0.0243749 -0.0156428 
-0.004552 0.00500669 0.00972304 0.00860844 0.00332185 -0.00228152 -0.00455413 -0.00189639 0.00367964 0.00799331 
0.00707015 0.000522568 -0.00793078 -0.0121659 -0.00840694 0.00192647 0.0120142 0.014334 0.00643378 -0.00633261 
-0.0139213 -0.00977991 0.00304423 0.0126916 0.00904867 -0.00595731 -0.0184502 -0.0150791 0.00123069 0.0143663 
0.0114261 -0.00342452 -0.00993633 -0.00412022 0.00482222 0.00516022 -0.000857627 -0.00273035 0.000219637 0.000909307 
-0.000455819 0.000793119 -0.000717516 -0.000291232 0.000721892 0.000855415 -0.00109625 -0.00117215 0.000907892 0.00229639 
0.00145021 -0.000135007 0.000237223 0.00254284 0.00173446 -0.00197581 -0.00214321 0.00151063 0.00228692 -8.49676e-05 
-0.000416371 4.23858e-05 -0.000411445 -0.0011006 -0.00281951 -0.00443045 -0.00599714 -0.00949059 -0.0134787 -0.0168179 
-0.0204451 -0.0235676 -0.0274211 -0.0319263 -0.0357849 -0.03992 -0.0433683 -0.0458664 -0.048323 -0.0498819 
-0.0502218 -0.0489759 -0.0459182 -0.0407311 -0.0334141 -0.0241102 -0.0130367 -0.00106041 0.0112091 0.0224641 
0.0315595 0.0372039 0.0383631 0.0346764 0.0265646 0.0156071 0.00411983 -0.00513444 -0.0101205 -0.0100235 
-0.00618118 -0.00121267 0.00154271 0.000376353 -0.00429501 -0.0091397 -0.0103593 -0.0054596 0.00399534 0.0132581 
0.0163329 0.0105744 -0.00154467 -0.0127153 -0.0157205 -0.00820719 0.00513883 0.0150031 0.0142603 0.00287964 
-0.0105954 -0.0156039 -0.00759128 0.00661246 0.0132915 0.00517905 -0.0110201 -0.0179033 -0.00713312 0.0105383 
0.0178265 0.00551021 -0.00815275 -0.00813855 0.00193629 0.0071291 0.00206418 -0.0029687 -0.00107888 0.00104096 
-0.00039626 0.000482762 -0.000644659 0.000533052 0.000148507 -0.000997305 -0.00111786 0.00160509 0.00303627 0.00113824 
-0.00170948 -0.00270703 -0.00141511 -0.000496783 -0.00172494 -0.0014331 0.0012726 0.0022489 0.000261999 -0.000794605 
-0.00114035 -0.00249692 -0.0031952 -0.00487314 -0.00791529 -0.00952538 -0.011879 -0.0154648 -0.0174784 -0.0195565 
-0.0222764 -0.0247446 -0.0283417 -0.0311769 -0.0336351 -0.0369321 -0.0397558 -0.043155 -0.0470934 -0.0505685 
-0.0538764 -0.0567231 -0.058954 -0.0598493 -0.059287 -0.0566094 -0.0516255 -0.044261 -0.0343733 -0.0228 
-0.0100713 0.00215139 0.0125428 0.0194063 0.0218307 0.0196292 0.0139732 0.0069896 0.00134623 -0.000879259 
0.000743748 0.00469685 0.00775445 0.00699559 0.00122527 -0.00734429 -0.0142891 -0.0149401 -0.00793412 0.00372689 
0.0134929 0.0155392 0.00848719 -0.00329858 -0.01209 -0.0125011 -0.00435622 0.00625568 0.0121354 0.00895039 
-0.000998114 -0.0101692 -0.0112325 -0.00231152 0.00813901 0.00965759 -0.00119358 -0.0133605 -0.011403 0.00304195 
0.017401 0.01329 -0.00272796 -0.0101213 -0.00269632 0.0065179 0.00525877 -0.0014091 -0.00215959 0.000690806 
-0.000196705 0.000246314 -0.000328045 0.000261675 -0.000892228 -0.00061914 0.00124691 0.00259971 0.000534881 -0.00216377 
-0.00227878 -0.000341701 0.00197873 0.00273407 0.00210052 0.00139928 9.27065e-05 -0.00112751 -0.00127643 -0.00190774 
-0.00423555 -0.00475938 -0.00457221 -0.00736458 -0.00884376 -0.00831044 -0.00999885 -0.0107825 -0.00982458 -0.0100717 
-0.00919611 -0.00765405 -0.0063811 -0.00381259 -0.00258343 -0.00209897 -0.00163214 -0.00287473 -0.00474694 -0.00756177 
-0.0116952 -0.0167768 -0.0223295 -0.0277833 -0.0331753 -0.0375636 -0.0409812 -0.0426112 -0.0421389 -0.0393825 
-0.0340051 -0.0267872 -0.0181141 -0.00966559 -0.00253936 0.00179971 0.00319202 0.00215616 0.000657669 0.000564736 
0.00335971 0.00830276 0.0131011 0.0141675 0.00945124 -0.000406702 -0.0110274 -0.016833 -0.0140035 -0.0037789 
0.0081388 0.0143599 0.0115375 0.00185839 -0.00742311 -0.0104673 -0.00593862 0.00179878 0.0069598 0.0066826 
0.00127429 -0.00500531 -0.00859466 -0.00544407 0.00262744 0.00858617 0.00529052 -0.00649951 -0.0110631 -0.00278631 
0.0131833 0.0180829 0.00501662 -0.00853855 -0.006625 0.00393456 0.00710549 0.00107755 -0.00232284 0.000186451 
0.000164934 -3.8104e-05 -0.000205341 -0.000366511 -0.000701229 0.000695182 0.00157754 0.000532136 -0.00100473 -0.000349001 
0.00131386 0.00170302 0.00125229 -0.00049365 -0.0030435 -0.00470334 -0.00338672 -0.000164732 -3.00714e-05 -0.00364626 
-0.00476087 -0.00225846 -0.00323606 -0.00529356 -0.00256647 -0.000813594 -0.00051439 0.00370061 0.00812107 0.0123704 
0.0190855 0.0246874 0.0302701 0.0359575 0.0396819 0.0438519 0.0467497 0.0476698 0.0477971 0.0459006 
0.0426988 0.0382546 0.033076 0.026786 0.0196373 0.0123254 0.00456681 -0.00244956 -0.00890123 -0.0137834 
-0.0168921 -0.0179348 -0.0168735 -0.0145899 -0.0118369 -0.0101643 -0.010089 -0.0117639 -0.0134306 -0.0131644 
-0.00852167 0.000283066 0.0113415 0.0195256 0.0207302 0.0127445 -0.000925421 -0.0137463 -0.0182417 -0.0122894 
0.000344498 0.0108148 0.0125607 0.00516077 -0.0047374 -0.00924471 -0.00609955 0.00101998 0.00492698 0.0042037 
0.000364216 -0.00229399 -0.00373441 -0.00412829 -0.00150104 0.00320392 0.00660524 0.00053405 -0.00712326 -0.00630779 
0.00561541 0.0166105 0.0112709 -0.00419246 -0.00899877 0.000208414 0.00734045 0.00365468 -0.001625 -0.000244705 
0.000519202 -0.000470557 -0.000203275 -0.000650087 9.49685e-05 0.000928911 0.000621247 0.000153238 0.000855147 0.00112277 
-0.000581157 -0.00225438 -0.00171816 -0.00135678 -0.00126992 0.000614652 0.00398577 0.00328893 -0.00244444 -0.00504795 
-0.000905247 0.00111095 -0.00111823 0.00189935 0.00765471 0.00951215 0.0144816 0.0225275 0.0279863 0.0349966 
0.0423202 0.0471897 0.0533935 0.0584211 0.0624053 0.0664599 0.0677235 0.0683074 0.0680115 0.0663168 
0.0642249 0.0609907 0.0572583 0.0523171 0.0474472 0.0423371 0.0369252 0.0318205 0.0261433 0.0210013 
0.0157531 0.0115471 0.00815435 0.00596542 0.00425177 0.00200714 -0.00188608 -0.00805563 -0.0153854 -0.0215556 
-0.0229015 -0.0173836 -0.00514147 0.00922039 0.0196288 0.020295 0.0109322 -0.00350361 -0.0139789 -0.0142094 
-0.00458228 0.00730935 0.0119602 0.00638356 -0.00457296 -0.010096 -0.0062683 0.00345456 0.00804041 0.00392081 
-0.00390213 -0.00667207 -0.00198465 0.00185255 0.0016925 -0.000483833 0.00191306 0.00295176 -0.00131332 -0.00454453 
0.000529312 0.0110936 0.0130572 0.000771882 -0.00934014 -0.0039787 0.0057947 0.00559475 -0.000351704 -0.00044914 
0.000649354 -0.00097424 -5.29504e-05 -0.000584176 0.000602009 0.000416299 0.000565939 0.00126525 0.00115549 -0.00129836 
-0.0027371 -0.000226919 0.0031107 0.00231923 -8.69296e-05 -0.000692103 -0.00127761 -0.00470737 -0.00568926 -0.000138193 
0.00475765 0.00342598 0.00521867 0.0128854 0.0165089 0.0190893 0.0268921 0.0318764 0.0348088 0.040085 
0.0422166 0.0435774 0.0458899 0.0451704 0.044588 0.0428347 0.0399113 0.0385326 0.0361849 0.0341583 
0.0318721 0.0291325 0.0266832 0.0240675 0.022788 0.0213504 0.02085 0.0207201 0.0206055 0.0209619 
0.0207205 0.021058 0.0211876 0.0222288 0.0229689 0.0230354 0.0201888 0.0134632 0.00235387 -0.0106291 
-0.0215369 -0.0252554 -0.0194641 -0.0056401 0.0095706 0.0183939 0.015551 0.00324179 -0.0106101 -0.0156396 
-0.00865902 0.005753 0.0149239 0.0117037 -0.0027609 -0.0146867 -0.0136311 0.000352478 0.0135648 0.0122774 
-0.000568308 -0.0120342 -0.00847305 0.00278926 0.00804286 0.00269304 -0.00224187 -9.83813e-05 0.00147619 -0.00126881 
-0.00144603 0.00509015 0.0107222 0.00431688 -0.00786673 -0.0079079 0.00243297 0.00638236 0.00107054 -0.000444018 
0.00042881 -0.00126438 0.000255359 -0.000519106 0.000654035 0.000181578 0.00140157 0.00153394 -0.000540954 -0.00254899 
-0.000394978 0.00299224 0.00150554 -0.00386189 -0.00557672 -0.00221937 0.00110432 0.00250124 0.00533715 0.00788073 
0.00666611 0.00684543 0.0133481 0.0172904 0.0166853 0.0204754 0.0239586 0.0215717 0.021043 0.0192364 
0.0131026 0.00889861 0.00306409 -0.00410813 -0.00885983 -0.01431 -0.0171537 -0.0186357 -0.0206258 -0.020746 
-0.0216878 -0.0218881 -0.0223245 -0.022805 -0.0227415 -0.0232118 -0.0218819 -0.0203147 -0.0171564 -0.0134284 
-0.00925456 -0.0044 0.000770372 0.00738581 0.0145617 0.0223999 0.0278371 0.0291794 0.0231605 0.010947 
-0.00518208 -0.0180444 -0.0227117 -0.0155679 -0.00120791 0.0131593 0.0175709 0.0100901 -0.00546349 -0.0166115 
-0.015601 -0.00115861 0.0147697 0.0196099 0.00760053 -0.0117452 -0.0205222 -0.010929 0.0100071 0.019168 
0.00918386 -0.0101036 -0.016291 -0.00299126 0.0111549 0.00980406 -0.00172267 -0.00534236 0.000748604 0.00293375 
8.40599e-05 0.000904044 0.00588631 0.00514179 -0.00506566 -0.0101528 -0.00230402 0.00527071 0.0021832 -0.0002636 
-0.00012137 -0.00114516 0.000475918 -0.000606066 0.000638119 0.000523939 0.00197014 0.00048714 -0.00184322 -0.00132527 
0.00167714 0.0015556 -0.00232874 -0.00332076 0.00156959 0.0066417 0.00623272 0.00277823 0.000963613 0.00140127 
0.00429173 0.00964889 0.0123908 0.00959376 0.00915529 0.00996252 0.00351975 -0.00411154 -0.00993444 -0.0213633 
-0.0320425 -0.0400411 -0.0502954 -0.0565511 -0.0603449 -0.0630615 -0.0609771 -0.0590327 -0.0547079 -0.0487429 
-0.0442073 -0.0390195 -0.0365543 -0.0349092 -0.0352775 -0.0367556 -0.0377022 -0.0392872 -0.0387597 -0.0382664 
-0.0359866 -0.0333646 -0.0291777 -0.0231937 -0.0144678 -0.00271139 0.0102044 0.0217691 0.0270112 0.0239757 
0.0119583 -0.00326552 -0.015472 -0.0171856 -0.00851861 0.00622414 0.0161373 0.0150325 0.00190385 -0.013589 
-0.0202928 -0.0118191 0.0069122 0.0206744 0.0188334 -0.000641362 -0.0188651 -0.0211947 -0.00143735 0.0192223 
0.0193837 -0.000304059 -0.0192628 -0.0132079 0.00781696 0.0163291 0.00456903 -0.00893 -0.00526735 0.00410776 
0.00383273 6.46203e-05 0.00139653 0.00355497 -0.00236485 -0.00971508 -0.00636822 0.00237809 0.00224405 -0.000196654 
-0.000792261 -0.000610762 0.000341475 -0.000677381 0.000803761 0.00103963 0.00174045 -0.000669643 -0.00158983 0.000292399 
0.00134134 -0.000465501 -0.00163516 0.000797574 0.00302416 0.00157134 -0.00206354 -0.00236144 0.00203035 0.00819413 
0.0114108 0.00900342 0.00301772 -0.000807501 -0.00328583 -0.0130771 -0.0259465 -0.0344668 -0.0464043 -0.0602643 
-0.0673359 -0.0748827 -0.0804556 -0.0790146 -0.0773809 -0.0708876 -0.0606216 -0.0507588 -0.0366228 -0.0244369 
-0.0131691 -0.00300671 0.00287594 0.0071265 0.00641622 0.00384777 -0.00143782 -0.00782979 -0.0133068 -0.0193144 
-0.0233653 -0.0281899 -0.0312566 -0.0338223 -0.0324639 -0.0269861 -0.0157492 -0.00167761 0.0116234 0.0183967 
0.0160149 0.00536069 -0.00729922 -0.0145381 -0.0113326 0.000459207 0.0134847 0.0180728 0.0109551 -0.0050066 
-0.0174496 -0.0192481 -0.00541695 0.0114259 0.0215123 0.0120293 -0.00773455 -0.0221191 -0.0152668 0.00922897 
0.0222964 0.0121133 -0.0128878 -0.0215309 -0.00180408 0.0170365 0.0128511 -0.00637281 -0.0118861 0.000707085 
0.00722329 0.00177931 -0.00180211 0.000770915 -0.000554191 -0.00719327 -0.00797176 -0.000664617 0.00143442 -0.000706758 
-0.00129999 0.000162583 -0.000186891 -0.000460075 0.00108507 0.00133945 0.00105217 -0.00110852 -0.000776069 0.000538381 
0.000138208 -0.000168415 0.000655831 0.00121455 0.000305717 0.000999941 0.00349104 0.00681208 0.00819141 0.00597253 
-0.00113576 -0.00882909 -0.0124194 -0.0153849 -0.0258162 -0.0399513 -0.0475366 -0.0551264 -0.0672466 -0.071479 
-0.0711147 -0.0727355 -0.0660932 -0.0568385 -0.048271 -0.0333457 -0.0205349 -0.00721603 0.00822327 0.0196327 
0.0331384 0.0435265 0.0515225 0.0570831 0.0571083 0.0552033 0.0482888 0.0412456 0.0327093 0.0243434 
0.0166286 0.00789959 -0.000448626 -0.0105744 -0.0184029 -0.0239159 -0.02194 -0.0148095 -0.00241601 0.00712692 
0.0115381 0.00605864 -0.00334334 -0.0127078 -0.0130124 -0.00585048 0.0069914 0.0143108 0.0141698 0.00334519 
-0.00738229 -0.014844 -0.0103693 7.51754e-05 0.012066 0.0150917 0.00417067 -0.0108925 -0.0193567 -0.00402809 
0.0159536 0.0187017 -0.000312069 -0.0217833 -0.0125015 0.0119692 0.0182063 0.000194249 -0.0153758 -0.00646805 
0.00785287 0.00562313 -0.00297762 -0.00276751 -0.000110198 -0.0038306 -0.00690045 -0.00238176 0.00111901 -0.00171694 
-0.00152848 0.000966667 -0.00096823 0.000127287 0.00120367 0.00134667 0.000397501 -0.000955716 -0.000380402 0.000125549 
0.000297816 0.00147029 0.00075289 -0.00100844 5.62897e-05 0.00406956 0.00379529 -0.000697798 -0.00548728 -0.0084716 
-0.0116181 -0.0132178 -0.0160668 -0.0260312 -0.0393886 -0.0448708 -0.0463638 -0.0533578 -0.0545231 -0.0450935 
-0.0392872 -0.0307058 -0.0154392 -0.00660335 0.00347687 0.0140004 0.0171646 0.0234791 0.0277067 0.0311344 
0.0384412 0.0426145 0.0498036 0.0546755 0.0578072 0.0589958 0.055574 0.0525197 0.0457203 0.0411052 
0.0357524 0.0315937 0.0258749 0.0176118 0.00781502 -0.00266176 -0.00838537 -0.00941269 -0.00315353 0.00328564 
0.00832281 0.00469133 -0.00223973 -0.0112946 -0.0122312 -0.00734666 0.00347726 0.0093224 0.00973257 0.00260462 
-0.00329058 -0.00592745 -0.00452115 -0.000749095 0.00116684 0.00641132 0.00521534 0.00139754 -0.0103582 -0.0114237 
0.00468021 0.0154254 0.0100419 -0.0135168 -0.0196663 0.00278934 0.0192521 0.00798664 -0.0132611 -0.0131246 
0.00438055 0.00914975 -0.00162573 -0.00622998 -0.00137483 -0.000878281 -0.00401008 -0.00291072 0.0023975 -0.00225343 
-0.00166383 0.00167047 -0.00182549 0.000965386 0.00100985 0.00129441 2.3647e-05 -0.00068585 -0.000500759 5.90454e-05 
0.00130707 0.00167672 -0.00125476 -0.00161505 0.00275153 0.00432351 -0.00195045 -0.00654277 -0.00520075 -0.00392716 
-0.00877641 -0.0164303 -0.0262258 -0.0356257 -0.0374099 -0.03241 -0.0309352 -0.0271267 -0.010491 0.00516859 
0.0146282 0.0305307 0.0403868 0.0403633 0.041922 0.0334893 0.0200526 0.0100576 -0.00488794 -0.0137397 
-0.0193136 -0.0217663 -0.0155975 -0.00998772 -0.000594139 0.00554743 0.00988183 0.0124364 0.0109641 0.0123918 
0.0122796 0.0162937 0.0176096 0.0184825 0.0143509 0.00876083 0.00292663 0.00112674 0.00401534 0.00896282 
0.0117928 0.0074213 -0.00158199 -0.011343 -0.0132925 -0.006496 0.00486848 0.011239 0.00684984 -0.00301005 
-0.0108353 -0.0053782 0.00290566 0.0106403 0.00306922 -0.00320559 -0.00534407 0.00150884 0.0040093 -0.00599047 
-0.00269476 0.00617611 0.0117667 -0.00119573 -0.0181274 -0.00688841 0.0153968 0.0134147 -0.00836737 -0.016313 
-0.000435866 0.0110727 0.00188086 -0.00829665 -0.00417896 0.000394446 -9.72644e-05 -0.00316008 0.00455413 -0.00125565 
-0.00201388 0.00220781 -0.00263379 0.00186292 0.000578014 0.00137944 -0.000213073 -0.000653114 -0.000712634 0.000620765 
0.00203428 0.000469479 -0.00246138 -7.81471e-05 0.00335179 -0.000751338 -0.00756802 -0.00684198 -0.00491927 -0.0109588 
-0.0215078 -0.0264142 -0.0256362 -0.0202611 -0.0108984 -0.00181465 0.00809188 0.0278878 0.0497947 0.0610878 
0.0722655 0.081984 0.0746115 0.0632477 0.0472471 0.0176476 -0.00849116 -0.0353053 -0.0625791 -0.0781388 
-0.0915183 -0.0928705 -0.0862578 -0.0765979 -0.0603619 -0.0484258 -0.0351138 -0.0287062 -0.0251343 -0.0227609 
-0.0215369 -0.0156646 -0.0114694 -0.00467341 -0.00376203 -0.00243624 -0.00491926 -0.00162104 0.00327126 0.0131025 
0.0171295 0.0146453 0.00128014 -0.0115492 -0.018535 -0.00913009 0.0062016 0.0205763 0.0151587 -0.000667122 
-0.0210183 -0.0189911 -0.00298939 0.0187187 0.0184294 -0.000258158 -0.0150243 -0.0130344 0.0073519 0.00677197 
-0.00140619 -0.00224579 0.00428617 0.00548904 -0.00919989 -0.0118189 0.00850139 0.0165898 -0.00224948 -0.0170243 
-0.00523583 0.0111199 0.0063129 -0.00782601 -0.00663215 -0.000486704 0.0038023 -0.00345902 0.00567517 0.00131991 
-0.00278692 0.00261631 -0.00330222 0.00269418 8.20194e-05 0.00159204 -0.000506206 -0.000787036 -0.000626671 0.00131979 
0.00178255 -0.00111978 -0.00235608 0.000779396 0.000791587 -0.0049415 -0.00684865 -0.00428774 -0.00732994 -0.0146067 
-0.0153002 -0.00706714 0.00174848 0.00953324 0.0196808 0.0344136 0.055458 0.0780897 0.0912623 0.0985662 
0.105485 0.0972982 0.0771118 0.0587057 0.0284568 -0.00483275 -0.0301298 -0.0598954 -0.0808029 -0.0942218 
-0.105848 -0.102334 -0.0967335 -0.082097 -0.0632128 -0.0462813 -0.0278042 -0.0206501 -0.0151527 -0.0178192 
-0.0193846 -0.0200219 -0.0193201 -0.0160849 -0.016833 -0.0164943 -0.0201204 -0.0155473 -0.00847302 0.0083322 
0.0185461 0.02309 0.00880508 -0.00842025 -0.0254069 -0.0204818 -0.00354072 0.022365 0.0283993 0.0152865 
-0.0148791 -0.0308168 -0.019457 0.00988081 0.0311091 0.0151048 -0.0110833 -0.0270191 -0.00460846 0.0161859 
0.00863698 -0.00389744 -0.00486622 0.00319715 -9.24747e-05 -0.00985807 0.000399894 0.0153723 0.00457941 -0.0148504 
-0.00936733 0.00958721 0.0103112 -0.00598021 -0.00745424 -0.00213967 0.00725025 -0.00313123 0.00423396 0.00418551 
-0.00382597 0.00295169 -0.00378167 0.00336934 -0.000341368 0.00179417 -0.000917001 -0.000923463 -0.000286187 0.00165934 
0.000980652 -0.00196698 -0.00164499 0.000115337 -0.00183816 -0.00531486 -0.00457404 -0.00552149 -0.00945817 -0.00829918 
0.000431464 0.00948946 0.0160024 0.0270778 0.0468649 0.0710147 0.0922428 0.104448 0.109632 0.112387 
0.104409 0.082571 0.064306 0.0456512 0.0198543 0.00618324 -0.00543355 -0.019176 -0.0221728 -0.0311505 
-0.0365457 -0.0349044 -0.0358792 -0.0244828 -0.014014 0.00182749 0.0168714 0.0234161 0.0284518 0.0214716 
0.017731 0.00897351 0.00572752 0.00109022 -0.00366139 -0.0116397 -0.02148 -0.025269 -0.0213947 -0.00414345 
0.0131671 0.0266454 0.0200951 0.00259096 -0.0215213 -0.0293656 -0.0191933 0.00744633 0.0288531 0.0282063 
0.00554881 -0.0264518 -0.0307328 -0.0106998 0.026647 0.0294972 0.00370391 -0.0279412 -0.0231517 0.0122785 
0.0205218 0.00115764 -0.0107008 -0.00375667 0.00374071 -0.003043 -0.00391365 0.00948719 0.00871029 -0.0099803 
-0.0119484 0.00646463 0.0136167 -0.0036319 -0.00749551 -0.00380906 0.00993691 -0.000697259 0.000915596 0.00548887 
-0.00474303 0.00322912 -0.00406148 0.00383082 -0.000623386 0.00184541 -0.00134726 -0.000923206 0.000136311 0.00155592 
0.000187533 -0.00220514 -0.00146933 -0.00124869 -0.002449 -0.00347152 -0.00337834 -0.00508224 -0.00181124 0.00718449 
0.0157474 0.023009 0.0362938 0.057851 0.0806199 0.0958164 0.101366 0.100669 0.0977095 0.0868254 
0.0656123 0.0486435 0.0427279 0.0352152 0.0377482 0.0541511 0.0631845 0.0753387 0.0839807 0.0750051 
0.0680828 0.0515658 0.0341477 0.0267583 0.0192326 0.0275751 0.0338776 0.0425768 0.0470945 0.0432064 
0.0410673 0.0317158 0.0309476 0.0249275 0.0224764 0.0089039 -0.00478837 -0.0209283 -0.0242034 -0.0161794 
0.00341646 0.020002 0.0256413 0.0133411 -0.00613241 -0.0240845 -0.0230989 -0.0104446 0.0145665 0.0235736 
0.021297 -0.007294 -0.0248101 -0.0245187 0.00708714 0.0309462 0.018708 -0.0150821 -0.0325277 -0.00249199 
0.0268333 0.011847 -0.0122969 -0.0110226 0.00286863 0.00335371 -0.00297136 0.00322374 0.00808037 -0.0050664 
-0.0118538 0.0023254 0.0152458 -0.000836102 -0.00735634 -0.00534583 0.0106385 0.00367181 -0.00149584 0.00444211 
-0.00525145 0.00340047 -0.00414002 0.00405571 -0.000714296 0.00169395 -0.00165016 -0.000828985 0.000414224 0.00117815 
-0.000252435 -0.00214096 -0.00167154 -0.00169283 -0.000965296 -0.00140314 -0.00208691 2.71752e-05 0.00954107 0.0174103 
0.0229538 0.0352336 0.0550754 0.0710879 0.0771769 0.075099 0.069136 0.0600679 0.045637 0.0237619 
0.00759245 0.00799353 0.0172405 0.0345954 0.0718817 0.108572 0.136234 0.163441 0.165786 0.149866 
0.126664 0.0830982 0.0468556 0.0138456 -0.00865306 -0.0105735 -0.0108061 0.00276887 0.0085854 0.0149457 