# vtk DataFile Version 2.0
Titre
ASCII
DATASET STRUCTURED_POINTS
DIMENSIONS 100 100 1
ORIGIN 0.0 0.0 0.0
SPACING 0.1 0.1 0.0
POINT_DATA 10000 
SCALARS rho float
LOOKUP_TABLE default
-1.7293e-07 -2.63726e-07 -4.66869e-07 -7.44545e-07 -1.12786e-06 -1.5943e-06 -2.09793e-06 -2.55004e-06 -2.83756e-06 -2.85421e-06 
-2.5475e-06 -1.95739e-06 -1.22127e-06 -5.29733e-07 -4.64976e-08 1.64842e-07 1.59893e-07 6.35358e-08 -1.35685e-08 -3.09703e-08 
-1.18596e-08 5.45644e-09 6.38788e-09 1.80287e-10 -2.22687e-09 -5.31192e-10 7.00993e-10 2.45617e-10 -2.3291e-10 -7.67826e-11 
8.32428e-11 1.35758e-11 -2.88775e-11 2.69021e-12 7.88537e-12 -3.41078e-12 -9.36161e-13 1.32185e-12 -3.5914e-13 -1.57074e-13 
1.6991e-13 -5.79459e-14 -3.97457e-15 1.46149e-14 -8.28478e-15 2.50499e-15 -1.472e-16 -3.18359e-16 2.28719e-16 -1.01831e-16 
3.47046e-17 -9.41055e-18 1.93349e-18 -2.14188e-19 -4.67984e-20 4.07405e-20 -1.71084e-20 5.62232e-21 -1.59562e-21 4.05847e-22 
-9.40828e-23 2.00227e-23 -3.91782e-24 7.03099e-25 -1.15273e-25 1.73175e-26 -2.48377e-27 3.96263e-28 -9.15043e-29 8.16639e-30 
-1.41682e-28 -8.50354e-28 -5.5177e-27 -3.30351e-26 -1.97765e-25 -1.11929e-24 -6.2572e-24 -3.3665e-23 -1.75906e-22 -9.01639e-22 
-4.37851e-21 -2.13758e-20 -9.52107e-20 -4.41847e-19 -1.76297e-18 -7.76067e-18 -2.67244e-17 -1.12308e-16 -3.26004e-16 -1.39751e-15 
-4.50873e-15 -2.43909e-14 -1.5641e-13 -9.15928e-13 -7.15539e-12 -3.75518e-11 -2.6152e-10 -1.2443e-09 -7.48705e-09 -3.29858e-08 
2.48824e-07 4.30066e-07 7.98455e-07 1.36033e-06 2.19006e-06 3.29667e-06 4.62434e-06 6.00663e-06 7.16939e-06 7.78188e-06 
7.56941e-06 6.45167e-06 4.63581e-06 2.58677e-06 8.51727e-07 -1.87669e-07 -4.87337e-07 -3.15716e-07 -4.45015e-08 8.79608e-08 
6.56943e-08 -1.52433e-10 -2.41279e-08 -8.35738e-09 6.47789e-09 4.46699e-09 -1.66004e-09 -1.76933e-09 5.28199e-10 6.10023e-10 
-2.30027e-10 -1.75523e-10 1.08755e-10 3.056e-11 -4.28702e-11 5.12283e-12 1.06674e-11 -5.98532e-12 -1.47844e-13 1.65466e-12 
-8.48217e-13 7.84999e-14 1.49689e-13 -1.09255e-13 3.79975e-14 -3.1424e-15 -4.93157e-15 3.796e-15 -1.71867e-15 5.66869e-16 
-1.3387e-16 1.49018e-17 5.67049e-18 -4.79287e-18 2.18746e-18 -7.93018e-19 2.50233e-19 -7.14109e-20 1.88075e-20 -4.62631e-21 
1.07066e-21 -2.34147e-22 4.85062e-23 -9.52907e-24 1.77581e-24 -3.14059e-25 5.2817e-26 -8.49595e-27 1.38197e-27 2.50222e-29 
1.27017e-27 6.27267e-27 3.15166e-26 1.55423e-25 7.51935e-25 3.55643e-24 1.63922e-23 7.32392e-23 3.15139e-22 1.29318e-21 
4.97543e-21 1.7473e-20 5.21426e-20 1.07342e-19 -9.40786e-20 -2.61606e-18 -1.90894e-17 -9.65023e-17 -3.77115e-16 -7.81369e-16 
3.20688e-15 5.73448e-14 4.91696e-13 3.37305e-12 2.05457e-11 1.13823e-10 5.94872e-10 2.89461e-09 1.35232e-08 5.90849e-08 
-4.37681e-07 -7.8596e-07 -1.50476e-06 -2.65735e-06 -4.44007e-06 -6.95315e-06 -1.01705e-05 -1.38142e-05 -1.73004e-05 -1.97911e-05 
-2.04154e-05 -1.86319e-05 -1.45829e-05 -9.21685e-06 -4.00322e-06 -2.98258e-07 1.30424e-06 1.20199e-06 4.04352e-07 -1.83573e-07 
-2.60377e-07 -6.48511e-08 6.92939e-08 4.98716e-08 -1.12633e-08 -2.14448e-08 6.48113e-10 8.10706e-09 1.23481e-10 -2.97316e-09 
1.69477e-10 1.02874e-09 -2.47037e-10 -2.87997e-10 1.6381e-10 3.63516e-11 -6.44045e-11 1.67658e-11 1.06088e-11 -1.0021e-11 
2.63368e-12 1.02634e-12 -1.25486e-12 5.49576e-13 -8.1629e-14 -5.87442e-14 5.49665e-14 -2.6497e-14 8.70702e-15 -1.76083e-15 
-5.95699e-17 2.60523e-16 -1.54393e-16 6.5333e-17 -2.31743e-17 7.29733e-18 -2.10053e-18 5.62688e-19 -1.41955e-19 3.39999e-20 
-7.7714e-21 1.70018e-21 -3.56438e-22 7.16036e-23 -1.37702e-23 2.53151e-24 -4.4415e-25 7.42425e-26 -1.18441e-26 1.63966e-27 
-9.62215e-28 -3.11596e-27 -1.33144e-26 -5.13087e-26 -1.67848e-25 -3.50656e-25 7.98683e-25 1.66017e-23 1.41387e-22 9.55287e-22 
5.70401e-21 3.11678e-20 1.57628e-19 7.35825e-19 3.11606e-18 1.13875e-17 3.04175e-17 2.58547e-19 -7.9912e-16 -7.92944e-15 
-5.75521e-14 -3.62698e-13 -2.09199e-12 -1.13083e-11 -5.79918e-11 -2.84025e-10 -1.33455e-09 -6.02397e-09 -2.61702e-08 -1.09208e-07 
6.7182e-07 1.2875e-06 2.56371e-06 4.74196e-06 8.28683e-06 1.35877e-05 2.08314e-05 2.97061e-05 3.91519e-05 4.72947e-05 
5.17747e-05 5.05374e-05 4.28801e-05 3.02155e-05 1.59249e-05 4.05381e-06 -2.61325e-06 -3.91063e-06 -2.05843e-06 6.87061e-08 
8.35763e-07 4.25207e-07 -1.24887e-07 -2.12374e-07 -1.82836e-08 7.82544e-08 2.11165e-08 -2.80569e-08 -9.65377e-09 1.08123e-08 
2.92065e-09 -4.36194e-09 -2.70111e-10 1.60232e-09 -3.68383e-10 -4.09012e-10 2.77129e-10 7.54682e-12 -8.68969e-11 4.26357e-11 
5.63726e-13 -1.16453e-11 7.00411e-12 -1.66985e-12 -4.9456e-13 6.90702e-13 -3.72532e-13 1.27045e-13 -2.28004e-14 -4.68146e-15 
6.43164e-15 -3.57404e-15 1.49319e-15 -5.27539e-16 1.6542e-16 -4.73227e-17 1.25897e-17 -3.16186e-18 7.58856e-19 -1.75706e-19 
3.94971e-20 -8.64417e-21 1.84125e-21 -3.80696e-22 7.61115e-23 -1.46539e-23 2.70682e-24 -4.78187e-25 8.05486e-26 -1.30948e-26 
9.92364e-28 -5.78534e-27 -3.04923e-26 -1.66611e-25 -8.91621e-25 -4.66655e-24 -2.38047e-23 -1.17833e-22 -5.62491e-22 -2.56499e-21 
-1.0995e-20 -4.29355e-20 -1.41419e-19 -2.8761e-19 8.41027e-19 1.59941e-17 1.38016e-16 9.61179e-16 5.99686e-15 3.48248e-14 
1.91672e-13 1.00978e-12 5.12144e-12 2.50943e-11 1.19026e-10 5.46984e-10 2.43539e-09 1.04949e-08 4.36859e-08 1.75049e-07 
-9.80132e-07 -1.9892e-06 -4.11759e-06 -7.9586e-06 -1.45304e-05 -2.49209e-05 -4.00138e-05 -5.9862e-05 -8.29576e-05 -0.000105697 
-0.00012258 -0.000127594 -0.000116705 -9.04958e-05 -5.52811e-05 -2.12593e-05 2.06623e-06 1.07438e-05 8.09412e-06 1.71384e-06 
-2.07809e-06 -1.85776e-06 -8.67662e-08 6.98657e-07 2.6531e-07 -2.11958e-07 -1.47126e-07 6.76979e-08 6.34169e-08 -2.72226e-08 
-2.33703e-08 1.33827e-08 6.49332e-09 -6.47653e-09 -4.72859e-10 2.42571e-09 -7.87489e-10 -4.48506e-10 4.64873e-10 -1.0762e-10 
-7.47899e-11 7.45506e-11 -2.68332e-11 -1.30981e-12 7.28258e-12 -4.71897e-12 1.7656e-12 -3.18306e-13 -9.58999e-14 1.19526e-13 
-6.71062e-14 2.82955e-14 -9.96526e-15 3.06072e-15 -8.39243e-16 2.08751e-16 -4.77841e-17 1.02394e-17 -2.10375e-18 4.2812e-19 
-8.93685e-20 1.95415e-20 -4.44794e-21 1.02591e-21 -2.32809e-22 5.08853e-23 -1.05845e-23 2.08345e-24 -3.87221e-25 6.82806e-26 
-9.56045e-27 1.05339e-26 4.39758e-26 2.17011e-25 1.02785e-24 4.65091e-24 1.97097e-23 7.50955e-23 2.29868e-22 2.89069e-22 
-3.4264e-21 -4.36737e-20 -3.57664e-19 -2.49215e-18 -1.58761e-17 -9.52164e-17 -5.456e-16 -3.01198e-15 -1.61008e-14 -8.36079e-14 
-4.22591e-13 -2.0815e-12 -9.99632e-12 -4.68044e-11 -2.13525e-10 -9.47963e-10 -4.08772e-09 -1.7073e-08 -6.88005e-08 -2.66073e-07 
1.31805e-06 2.84429e-06 6.13659e-06 1.24163e-05 2.37184e-05 4.25953e-05 7.16799e-05 0.000112545 0.000164001 0.000220304 
0.000270388 0.000299518 0.000294125 0.000248749 0.000171602 8.42351e-05 1.30752e-05 -2.38387e-05 -2.64565e-05 -1.09101e-05 
3.20594e-06 6.32744e-06 1.96202e-06 -1.71355e-06 -1.39412e-06 3.29823e-07 6.46529e-07 -5.48325e-08 -2.7586e-07 2.23629e-08 
1.13144e-07 -2.24861e-08 -4.12532e-08 1.84082e-08 1.0317e-08 -1.03135e-08 3.99544e-10 3.36978e-09 -1.78507e-09 -1.21892e-10 
6.15719e-10 -3.39104e-10 4.52997e-11 5.96506e-11 -5.24351e-11 2.29005e-11 -4.81501e-12 -1.23416e-12 1.80219e-12 -1.06921e-12 
4.62456e-13 -1.6216e-13 4.75496e-14 -1.15996e-14 2.22566e-15 -2.58872e-16 -2.66563e-17 2.87555e-17 -1.139e-17 3.39576e-18 
-8.53941e-19 1.87964e-19 -3.66033e-20 6.2607e-21 -9.09305e-22 1.00228e-22 -3.94868e-24 -1.90957e-24 7.59803e-25 -1.92104e-25 
3.93489e-26 -1.00954e-26 -7.004e-27 -5.57266e-27 2.03214e-25 2.43093e-24 2.05415e-23 1.5082e-22 1.02178e-21 6.55434e-21 
4.03453e-20 2.40176e-19 1.38948e-18 7.83705e-18 4.31878e-17 2.32869e-16 1.22976e-15 6.36412e-15 3.22831e-14 1.60516e-13 
7.82029e-13 3.73097e-12 1.74139e-11 7.94068e-11 3.53118e-10 1.52773e-09 6.41048e-09 2.59829e-08 1.01183e-07 3.75839e-07 
-1.63239e-06 -3.75127e-06 -8.45383e-06 -1.79278e-05 -3.58772e-05 -6.75336e-05 -0.000119203 -0.000196532 -0.000301212 -0.00042654 
-0.000553664 -0.000651722 -0.000685061 -0.000627917 -0.000481298 -0.000281438 -8.97163e-05 3.59887e-05 7.3013e-05 4.5275e-05 
2.5951e-06 -1.70801e-05 -1.03647e-05 2.34079e-06 5.16442e-06 4.70965e-07 -2.12066e-06 -4.89867e-07 8.99005e-07 2.19374e-07 
-4.05125e-07 -4.70522e-08 1.79208e-07 -2.26208e-08 -6.51275e-08 3.13527e-08 1.19057e-08 -1.67297e-08 4.19145e-09 3.33559e-09 
-3.30094e-09 1.02726e-09 2.96129e-10 -4.88959e-10 2.67228e-10 -7.19257e-11 -9.26719e-12 2.24199e-11 -1.47246e-11 6.6725e-12 
-2.34368e-12 6.39068e-13 -1.18427e-13 1.51526e-15 1.09697e-14 -6.30464e-15 2.497e-15 -8.19727e-16 2.36491e-16 -6.15814e-17 
1.46845e-17 -3.23377e-18 6.60862e-19 -1.25614e-19 2.22032e-20 -3.63869e-21 5.489e-22 -7.50896e-23 9.01821e-24 -8.72888e-25 
4.42766e-26 -4.23991e-27 -6.90433e-26 -4.1341e-25 -2.54529e-24 -1.54015e-23 -9.17833e-23 -5.3875e-22 -3.11534e-21 -1.77486e-20 
-9.96292e-20 -5.5103e-19 -3.00264e-18 -1.61181e-17 -8.52157e-17 -4.43598e-16 -2.27273e-15 -1.14542e-14 -5.67467e-14 -2.76126e-13 
-1.31824e-12 -6.16624e-12 -2.82144e-11 -1.26025e-10 -5.48127e-10 -2.31402e-09 -9.44433e-09 -3.70722e-08 -1.38999e-07 -4.93111e-07 
1.83896e-06 4.51913e-06 1.06707e-05 2.37702e-05 4.99324e-05 9.86724e-05 0.000182914 0.000316973 0.000511268 0.000763395 
0.00104773 0.0013093 0.00147007 0.00145375 0.00122481 0.000823079 0.000366079 2.34107e-06 -0.00016733 -0.000148926 
-4.35133e-05 3.39199e-05 3.79742e-05 4.01797e-06 -1.45157e-05 -6.01877e-06 5.1127e-06 3.40784e-06 -2.11413e-06 -1.58132e-06 
1.06631e-06 5.94737e-07 -5.81975e-07 -1.21965e-07 2.8242e-07 -4.90164e-08 -9.21418e-08 6.10064e-08 2.92722e-09 -2.32252e-08 
1.29038e-08 -6.83616e-10 -3.53645e-09 2.68252e-09 -9.62559e-10 1.31468e-11 2.26349e-10 -1.75557e-10 8.59372e-11 -3.08732e-11 
7.7788e-12 -7.45296e-13 -5.5923e-13 4.52255e-13 -2.18201e-13 8.43652e-14 -2.8271e-14 8.49445e-15 -2.33089e-15 5.90752e-16 
-1.39326e-16 3.07361e-17 -6.3652e-18 1.24043e-18 -2.2779e-19 3.9436e-20 -6.43233e-21 9.86485e-22 -1.41687e-22 1.8922e-23 
-2.31376e-24 2.82291e-25 1.44477e-25 9.93876e-25 5.79612e-24 3.35421e-23 1.92111e-22 1.08872e-21 6.10251e-21 3.38194e-20 
1.85231e-19 1.00224e-18 5.35467e-18 2.82345e-17 1.46845e-16 7.52813e-16 3.80126e-15 1.88884e-14 9.22648e-14 4.42501e-13 
2.08063e-12 9.57469e-12 4.30321e-11 1.88407e-10 8.01107e-10 3.29523e-09 1.30478e-08 4.94119e-08 1.77393e-07 5.96147e-07 
-1.85807e-06 -4.9138e-06 -1.22077e-05 -2.86572e-05 -6.33657e-05 -0.00013176 -0.000257002 -0.000468803 -0.000796675 -0.00125515 
-0.00182182 -0.00241594 -0.00289347 -0.00307728 -0.00282888 -0.00213904 -0.00118153 -0.000269208 0.000297286 0.000406971 
0.000204554 -3.09869e-05 -0.000107718 -4.20818e-05 2.90004e-05 2.7363e-05 -7.03423e-06 -1.36255e-05 2.50312e-06 6.61088e-06 
-1.63828e-06 -3.00133e-06 1.32054e-06 1.07634e-06 -9.15143e-07 -1.43181e-07 4.43826e-07 -1.49272e-07 -9.54884e-08 1.10081e-07 
-3.32217e-08 -1.60358e-08 2.194e-08 -1.0849e-08 1.65154e-09 1.74144e-09 -1.7881e-09 9.85966e-10 -3.75959e-10 9.12078e-11 
-1.61318e-13 -1.4815e-11 1.04164e-11 -5.06068e-12 2.03054e-12 -7.13837e-13 2.26173e-13 -6.56464e-14 1.76388e-14 -4.4196e-15 
1.03814e-15 -2.29514e-16 4.79022e-17 -9.45965e-18 1.77045e-18 -3.14378e-19 5.29929e-20 -8.47935e-21 1.28697e-21 -1.84983e-22 
2.50964e-23 -3.24989e-24 8.01339e-26 -1.77406e-24 -1.00517e-23 -5.76265e-23 -3.27116e-22 -1.8376e-21 -1.02127e-20 -5.61294e-20 
-3.04931e-19 -1.63665e-18 -8.6738e-18 -4.53613e-17 -2.33922e-16 -1.18853e-15 -5.9442e-15 -2.92313e-14 -1.41165e-13 -6.68477e-13 
-3.09867e-12 -1.40314e-11 -6.19134e-11 -2.65415e-10 -1.10131e-09 -4.40254e-09 -1.68524e-08 -6.12672e-08 -2.09117e-07 -6.58508e-07 
1.64575e-06 4.73655e-06 1.24598e-05 3.09802e-05 7.24164e-05 0.000159004 0.00032728 0.000629886 0.00112981 0.00188064 
0.00288916 0.00406655 0.0051917 0.00592599 0.00591423 0.00496535 0.00323074 0.00124078 -0.00030448 -0.000927534 
-0.000684732 -0.000107845 0.000234168 0.000176912 -2.40989e-05 -8.57827e-05 -8.38518e-06 3.93994e-05 6.17179e-06 -2.01968e-05 
-1.70267e-06 1.06681e-05 -1.1232e-06 -5.01817e-06 2.06034e-06 1.58356e-06 -1.58627e-06 7.46231e-08 6.15824e-07 -3.87667e-07 
9.95458e-09 1.34043e-07 -9.86984e-08 2.92966e-08 8.17244e-09 -1.5088e-08 9.92436e-09 -4.20969e-09 1.07465e-09 4.56981e-11 
-2.45002e-10 1.77596e-10 -9.10762e-11 3.87374e-11 -1.44467e-11 4.85526e-12 -1.49437e-12 4.25699e-13 -1.13081e-13 2.81667e-14 
-6.60677e-15 1.46421e-15 -3.07425e-16 6.12792e-17 -1.16158e-17 2.09654e-18 -3.60632e-19 5.91522e-20 -9.25329e-21 1.38016e-21 
-1.96122e-22 2.66114e-23 -2.969e-24 3.12245e-24 1.5455e-23 8.90212e-23 5.04665e-22 2.83108e-21 1.57032e-20 8.60886e-20 
4.66236e-19 2.49303e-18 1.31534e-17 6.84268e-17 3.507e-16 1.76913e-15 8.77469e-15 4.27378e-14 2.04115e-13 9.54297e-13 
4.35886e-12 1.94048e-11 8.39535e-11 3.51745e-10 1.42086e-09 5.5021e-09 2.02707e-08 7.03067e-08 2.2602e-07 6.5673e-07 
-1.22811e-06 -3.93149e-06 -1.10701e-05 -2.94083e-05 -7.31835e-05 -0.000170649 -0.000372375 -0.00075898 -0.00144116 -0.00254032 
-0.00413733 -0.0061868 -0.00842112 -0.0103058 -0.0111305 -0.0102869 -0.0076621 -0.00391842 -0.000360601 0.00171218 
0.00183569 0.000719609 -0.000334672 -0.000526275 -0.000103752 0.000195823 9.30977e-05 -8.12634e-05 -4.97579e-05 4.53201e-05 
2.31917e-05 -2.85839e-05 -7.09429e-06 1.70599e-05 -1.61967e-06 -7.8809e-06 4.14879e-06 1.59118e-06 -2.68616e-06 9.32281e-07 
4.79342e-07 -6.90397e-07 3.29938e-07 -1.24841e-08 -9.91814e-08 8.52954e-08 -4.23089e-08 1.24624e-08 1.38094e-10 -2.97945e-09 
2.39549e-09 -1.33056e-09 6.07786e-10 -2.42288e-10 8.67676e-11 -2.83928e-11 8.58487e-12 -2.4175e-12 6.37789e-13 -1.58363e-13 
3.71436e-14 -8.25388e-15 1.74193e-15 -3.49844e-16 6.69732e-17 -1.22374e-17 2.13645e-18 -3.56657e-19 5.69624e-20 -8.70578e-21 
1.27305e-21 -1.7804e-22 2.296e-23 -6.68684e-24 -2.2116e-23 -1.28094e-22 -7.28178e-22 -4.08763e-21 -2.26749e-20 -1.24216e-19 
-6.71655e-19 -3.58247e-18 -1.88359e-17 -9.75461e-17 -4.9712e-16 -2.49049e-15 -1.22507e-14 -5.90851e-14 -2.78953e-13 -1.28672e-12 
-5.78557e-12 -2.52885e-11 -1.07092e-10 -4.37549e-10 -1.71561e-09 -6.41032e-09 -2.26069e-08 -7.42103e-08 -2.21873e-07 -5.81398e-07 
7.07495e-07 2.65765e-06 8.19155e-06 2.36527e-05 6.34919e-05 0.000158842 0.000370429 0.000804698 0.0016257 0.00304652 
0.00527593 0.0083996 0.0122044 0.0160157 0.018689 0.0189131 0.0158588 0.00991552 0.00296673 -0.00231666 
-0.00405098 -0.0025212 -1.22753e-06 0.00118365 0.000625448 -0.000281005 -0.000352023 8.82797e-05 0.000179301 -6.258e-05 
-9.75798e-05 5.45953e-05 4.66371e-05 -4.39937e-05 -1.20634e-05 2.81022e-05 -6.11627e-06 -1.07185e-05 8.8273e-06 -6.06048e-07 
-3.3746e-06 2.65468e-06 -6.94331e-07 -4.32039e-07 6.01257e-07 -3.68738e-07 1.3306e-07 -9.63794e-09 -2.73062e-08 2.60712e-08 
-1.60387e-08 7.95835e-09 -3.41473e-09 1.30902e-09 -4.5681e-10 1.46894e-10 -4.38996e-11 1.22709e-11 -3.22401e-12 7.99367e-13 
-1.87646e-13 4.18167e-14 -8.86685e-15 1.79239e-15 -3.45977e-16 6.38554e-17 -1.12816e-17 1.90968e-18 -3.09926e-19 4.82482e-20 
-7.20765e-21 1.03435e-21 -1.42534e-22 2.51804e-23 2.67869e-23 1.7505e-22 9.90132e-22 5.57103e-21 3.09229e-20 1.69366e-19 
9.14713e-19 4.8682e-18 2.5512e-17 1.31532e-16 6.66493e-16 3.31534e-15 1.61677e-14 7.71742e-14 3.59917e-13 1.63641e-12 
7.23434e-12 3.09987e-11 1.28237e-10 5.09613e-10 1.93289e-09 6.93603e-09 2.32574e-08 7.15118e-08 1.95335e-07 4.44885e-07 
-2.29416e-07 -1.2653e-06 -4.5622e-06 -1.49682e-05 -4.46795e-05 -0.000122575 -0.000310484 -0.000727736 -0.00157905 -0.00316877 
-0.00586755 -0.00998699 -0.0155354 -0.0218986 -0.0276138 -0.0305199 -0.0285303 -0.0209391 -0.00957118 0.0013508 
0.00730249 0.00658648 0.00188153 -0.00189231 -0.00200247 -3.47122e-05 0.000876108 0.000132131 -0.000433647 -1.6122e-05 
0.000275915 -4.99832e-05 -0.00017039 7.97061e-05 7.79061e-05 -7.6418e-05 -8.86844e-06 4.47004e-05 -2.10618e-05 -8.09415e-06 
1.51416e-05 -7.63371e-06 -2.93758e-07 3.25037e-06 -2.68117e-06 1.22664e-06 -2.19051e-07 -1.80627e-07 2.28837e-07 -1.60071e-07 
8.73457e-08 -4.06388e-08 1.67611e-08 -6.26117e-09 2.14732e-09 -6.82501e-10 2.02429e-10 -5.63283e-11 1.4768e-11 -3.66096e-12 
8.60663e-13 -1.92371e-13 4.09695e-14 -8.32945e-15 1.61924e-15 -3.01405e-16 5.3783e-17 -9.20915e-18 1.51432e-18 -2.39273e-19 
3.63385e-20 -5.29952e-21 7.3519e-22 -9.92966e-23 -3.15567e-23 -2.20461e-22 -1.27563e-21 -7.17132e-21 -3.98549e-20 -2.18274e-19 
-1.17761e-18 -6.25384e-18 -3.26645e-17 -1.67635e-16 -8.44371e-16 -4.16886e-15 -2.01449e-14 -9.51072e-14 -4.37779e-13 -1.95979e-12 
-8.50683e-12 -3.56713e-11 -1.43827e-10 -5.54283e-10 -2.02547e-09 -6.94087e-09 -2.19426e-08 -6.23306e-08 -1.51508e-07 -2.80399e-07 
-8.18548e-08 1.56415e-07 1.26048e-06 5.91261e-06 2.19842e-05 7.06842e-05 0.00020299 0.000528648 0.00125803 0.00274515 
0.0054971 0.010088 0.016906 0.0257115 0.0351295 0.0424181 0.0440072 0.0371238 0.0220747 0.00365588 
-0.0103055 -0.0137258 -0.00731373 0.00135831 0.00455163 0.00169791 -0.00142322 -0.000973509 0.000673383 0.000383258 
-0.000560693 -0.000111339 0.000453388 -5.81875e-05 -0.000287504 0.000150983 0.000103589 -0.000139694 2.60595e-05 5.45047e-05 
-5.11777e-05 1.3737e-05 1.14129e-05 -1.55291e-05 9.33225e-06 -2.76781e-06 -6.98887e-07 1.59304e-06 -1.31665e-06 8.02093e-07 
-4.08122e-07 1.82166e-07 -7.31749e-08 2.68671e-08 -9.11118e-09 2.87534e-09 -8.49277e-10 2.3585e-10 -6.18134e-11 1.53382e-11 
-3.61337e-12 8.10118e-13 -1.73225e-13 3.53938e-14 -6.9218e-15 1.29755e-15 -2.33447e-16 4.03537e-17 -6.70804e-18 1.07314e-18 
-1.65357e-19 2.45938e-20 -3.56561e-21 5.38595e-22 -5.13144e-23 2.9951e-22 1.5308e-21 8.72635e-21 4.84964e-20 2.65644e-19 
1.43169e-18 7.5865e-18 3.94887e-17 2.01687e-16 1.00953e-15 4.94511e-15 2.36653e-14 1.10425e-13 5.01208e-13 2.20661e-12 
9.39023e-12 3.84581e-11 1.5075e-10 5.61478e-10 1.96751e-09 6.39481e-09 1.88581e-08 4.85643e-08 1.00758e-07 1.30066e-07 
1.8334e-07 4.094e-07 7.95516e-07 7.48041e-07 -2.63606e-06 -1.97361e-05 -8.09309e-05 -0.000262694 -0.000733249 -0.0018162 
-0.00404903 -0.00817633 -0.0149789 -0.0248408 -0.0370556 -0.0491221 -0.056615 -0.0544043 -0.0395613 -0.0148661 
0.0100443 0.0230272 0.0184514 0.00343275 -0.00737109 -0.00611966 0.000743289 0.00275528 -0.00026029 -0.00119664 
0.000742735 0.000651169 -0.000913146 -0.000230595 0.000784466 -0.000155051 -0.000444087 0.000332337 5.8009e-05 -0.000220871 
0.000130922 5.88663e-06 -6.64428e-05 5.65302e-05 -2.44831e-05 8.94528e-07 8.43174e-06 -8.82092e-06 6.12338e-06 -3.4424e-06 
1.67412e-06 -7.27036e-07 2.8715e-07 -1.04365e-07 3.5192e-08 -1.10767e-08 3.26969e-09 -9.08704e-10 2.38557e-10 -5.933e-11 
1.40152e-11 -3.15206e-12 6.76384e-13 -1.38755e-13 2.72609e-14 -5.13756e-15 9.30071e-16 -1.61939e-16 2.71463e-17 -4.38463e-18 
6.82525e-19 -1.02179e-19 1.45115e-20 -1.82302e-21 5.19281e-23 -2.38163e-22 -1.82017e-21 -9.96487e-21 -5.56731e-20 -3.04893e-19 
-1.64161e-18 -8.67935e-18 -4.50161e-17 -2.28768e-16 -1.13756e-15 -5.52595e-15 -2.61743e-14 -1.20616e-13 -5.39302e-13 -2.33205e-12 
-9.7133e-12 -3.87711e-11 -1.47331e-10 -5.28307e-10 -1.76562e-09 -5.39863e-09 -1.46513e-08 -3.33127e-08 -5.48396e-08 -2.68978e-08 
-1.28614e-07 -4.42112e-07 -1.32166e-06 -3.46919e-06 -7.76095e-06 -1.37116e-05 -1.36563e-05 2.31456e-05 0.00018537 0.000681498 
0.00192451 0.00460353 0.00965656 0.0180128 0.0299854 0.0443388 0.0573958 0.0630426 0.0547946 0.0303581 
-0.0034144 -0.0304904 -0.0351338 -0.0165471 0.00676889 0.0138129 0.00397209 -0.00464773 -0.00207296 0.00199432 
-0.000282244 -0.00167957 0.00134164 0.00118795 -0.00165441 -0.00026937 0.00133555 -0.000544748 -0.000504393 0.000667483 
-0.000221706 -0.0001711 0.00026073 -0.00016048 3.83231e-05 3.01977e-05 -4.71165e-05 3.84554e-05 -2.41923e-05 1.29169e-05 
-6.10119e-06 2.60696e-06 -1.02138e-06 3.70203e-07 -1.24914e-07 3.94234e-08 -1.1682e-08 3.26065e-09 -8.5972e-10 2.14695e-10 
-5.09058e-11 1.1487e-11 -2.47233e-12 5.08595e-13 -1.00199e-13 1.89395e-14 -3.44046e-15 6.01523e-16 -1.01355e-16 1.64789e-17 
-2.58947e-18 3.95089e-19 -5.9647e-20 9.60251e-21 -1.94146e-21 9.70707e-22 1.62837e-21 1.09105e-20 6.00996e-20 3.29625e-19 
1.77287e-18 9.35207e-18 4.83264e-17 2.4431e-16 1.20647e-15 5.80936e-15 2.72184e-14 1.23771e-13 5.44588e-13 2.30985e-12 
9.39999e-12 3.64834e-11 1.33985e-10 4.60579e-10 1.45899e-09 4.1565e-09 1.02059e-08 1.97241e-08 2.21664e-08 -1.91459e-08 
2.46384e-08 1.85876e-07 7.76064e-07 2.73333e-06 8.34261e-06 2.23778e-05 5.26727e-05 0.000107023 0.000179323 0.000213727 
3.65545e-05 -0.000739729 -0.00280133 -0.00711739 -0.0146878 -0.025908 -0.0394956 -0.0512844 -0.0539974 -0.0399586 
-0.00779603 0.0305109 0.0517802 0.0393327 0.00377182 -0.0214376 -0.0159019 0.002972 0.00717103 -0.000748905 
-0.00121623 0.00265273 -0.00125461 -0.00322033 0.00263993 0.0019146 -0.00307986 0.000274366 0.00193858 -0.00154211 
3.90877e-05 0.000837308 -0.000782974 0.000333576 3.73232e-05 -0.000192811 0.000195681 -0.000140134 8.28325e-05 -4.28182e-05 
1.99164e-05 -8.47028e-06 3.32578e-06 -1.21315e-06 4.12916e-07 -1.31584e-07 3.93708e-08 -1.10892e-08 2.94749e-09 -7.41077e-10 
1.76668e-10 -4.00265e-11 8.63829e-12 -1.77982e-12 3.50874e-13 -6.63237e-14 1.2045e-14 -2.10557e-15 3.54877e-16 -5.77387e-17 
9.06801e-18 -1.36749e-18 1.92558e-19 -2.1934e-20 -1.45997e-22 1.28541e-21 -2.89858e-21 -1.04862e-20 -6.13371e-20 -3.35055e-19 
-1.80099e-18 -9.47835e-18 -4.87935e-17 -2.45335e-16 -1.2028e-15 -5.73838e-15 -2.65779e-14 -1.19164e-13 -5.15407e-13 -2.14124e-12 
-8.49821e-12 -3.19938e-11 -1.1318e-10 -3.71256e-10 -1.10714e-09 -2.90672e-09 -6.32527e-09 -9.83949e-09 -4.86783e-09 2.21045e-08 
3.97181e-08 6.08086e-08 6.57445e-09 -5.63533e-07 -3.18311e-06 -1.23247e-05 -3.90156e-05 -0.000106356 -0.00025475 -0.000540162 
-0.0010138 -0.00167151 -0.00237038 -0.0027259 -0.00201889 0.00081278 0.00686556 0.016183 0.0256788 0.027525 
0.0119812 -0.0224362 -0.058109 -0.0644705 -0.0285949 0.0198178 0.0339267 0.00879523 -0.0124102 -0.00603543 
0.00230961 -0.00201625 0.000484762 0.00620044 -0.00286501 -0.0058633 0.00542737 0.00186405 -0.00528045 0.00253079 
0.0013747 -0.00273786 0.00181047 -0.000353834 -0.000550111 0.000789206 -0.000660297 0.000436047 -0.000248009 0.000126306 
-5.87531e-05 2.52277e-05 -1.00569e-05 3.73474e-06 -1.29512e-06 4.20245e-07 -1.27857e-07 3.655e-08 -9.83882e-09 2.4996e-09 
-6.00715e-10 1.36883e-10 -2.9644e-11 6.11575e-12 -1.2048e-12 2.27176e-13 -4.10961e-14 7.14875e-15 -1.19851e-15 1.94144e-16 
-3.05096e-17 4.7031e-18 -7.38233e-19 1.31541e-19 -3.17115e-20 1.10608e-20 -2.44658e-21 1.21609e-20 5.76936e-20 3.2033e-19 
1.71856e-18 9.02444e-18 4.62769e-17 2.31381e-16 1.12587e-15 5.31963e-15 2.43415e-14 1.0752e-13 4.56653e-13 1.85564e-12 
7.16916e-12 2.6116e-11 8.86953e-11 2.76325e-10 7.70367e-10 1.8427e-09 3.47471e-09 4.05498e-09 -6.82356e-10 -7.58676e-09 
-4.04477e-08 -1.34895e-07 -3.91644e-07 -9.60452e-07 -1.85028e-06 -2.06335e-06 3.01466e-06 2.77065e-05 0.000107422 0.000315499 
0.000782255 0.00171058 0.00338335 0.00615099 0.0103371 0.0159022 0.0217398 0.0250474 0.0223169 0.0135004 
0.00707956 0.0174649 0.0482529 0.0750247 0.0598465 0.000832887 -0.0467783 -0.0340854 0.00893655 0.0195448 
0.00214379 -0.00139099 -0.000593032 -0.00909952 0.0011867 0.0125928 -0.00670105 -0.00818254 0.0108938 -0.0018762 
-0.00605604 0.00673553 -0.00296205 -0.000730188 0.00243038 -0.0024919 0.00185881 -0.00116691 0.000652988 -0.000334535 
0.000158756 -7.00783e-05 2.88047e-05 -1.10286e-05 3.93579e-06 -1.31079e-06 4.08104e-07 -1.19026e-07 3.25931e-08 -8.39932e-09 
2.04186e-09 -4.69352e-10 1.02255e-10 -2.11641e-11 4.17127e-12 -7.84726e-13 1.41253e-13 -2.43873e-14 4.04791e-15 -6.47056e-16 
9.94989e-17 -1.45345e-17 1.89837e-18 -1.55102e-19 -3.34228e-20 2.8597e-20 -1.5505e-20 -3.65119e-21 -5.43777e-20 -2.86065e-19 
-1.53908e-18 -8.06209e-18 -4.11812e-17 -2.04722e-16 -9.88431e-16 -4.62343e-15 -2.08893e-14 -9.08348e-14 -3.78444e-13 -1.50217e-12 
-5.63957e-12 -1.98324e-11 -6.44615e-11 -1.89914e-10 -4.91899e-10 -1.06178e-09 -1.70654e-09 -1.43519e-09 5.23071e-10 -3.7758e-09 
9.46061e-09 6.62828e-08 2.85362e-07 1.0299e-06 3.21014e-06 8.7657e-06 2.10004e-05 4.37655e-05 7.74836e-05 0.000109382 
9.53711e-05 -7.13493e-05 -0.000622699 -0.00204795 -0.00530739 -0.0119342 -0.0234244 -0.039243 -0.0542016 -0.0589911 
-0.0482063 -0.0318047 -0.032531 -0.0576167 -0.0732823 -0.0357581 0.0360412 0.0616287 0.0134001 -0.0315081 
-0.0183971 0.00437309 0.00525692 0.0110671 0.00236083 -0.0205327 0.00363066 0.0203511 -0.0165854 -0.00446826 
0.0164532 -0.0124242 0.00208125 0.00525016 -0.00738143 0.00633167 -0.00438482 0.00269066 -0.00152384 0.000807792 
-0.000400924 0.000185509 -7.97189e-05 3.17629e-05 -1.17371e-05 4.02885e-06 -1.28763e-06 3.84192e-07 -1.07309e-07 2.81333e-08 
-6.94091e-09 1.61542e-09 -3.55501e-10 7.41402e-11 -1.46849e-11 2.7684e-12 -4.9783e-13 8.55908e-14 -1.41062e-14 2.23694e-15 
-3.4399e-16 5.2427e-17 -8.42949e-18 1.63263e-18 -4.28725e-19 1.43169e-19 -5.03887e-20 2.63298e-20 3.74967e-20 2.42859e-19 
1.2907e-18 6.75113e-18 3.43494e-17 1.69769e-16 8.1316e-16 3.76428e-15 1.67854e-14 7.18062e-14 2.93211e-13 1.13556e-12 
4.1365e-12 1.40155e-11 4.34888e-11 1.2078e-10 2.89548e-10 5.62289e-10 7.76995e-10 5.62236e-10 5.62761e-10 5.34694e-09 
1.20199e-08 1.95796e-08 -4.61179e-09 -2.49301e-07 -1.42494e-06 -5.75096e-06 -1.91566e-05 -5.54696e-05 -0.000143283 -0.000336031 
-0.000726031 -0.00146139 -0.00274715 -0.00475151 -0.0072395 -0.00878055 -0.00590082 0.00629188 0.0299707 0.0579468 
0.0725315 0.0597532 0.0316417 0.0233601 0.0466538 0.0552413 0.00300621 -0.0624999 -0.0486249 0.0236425 
0.042602 0.00238455 -0.0159189 -0.013848 -0.00527786 0.0257203 0.00622921 -0.0356279 0.0159669 0.021111 
-0.0320546 0.0154329 0.00575562 -0.0165556 0.017015 -0.01296 0.0086091 -0.00536284 0.00320343 -0.00182012 
0.000967521 -0.000475356 0.000214717 -8.91305e-05 3.40784e-05 -1.2042e-05 3.9473e-06 -1.20463e-06 3.43425e-07 -9.17425e-08 
2.30292e-08 -5.44572e-09 1.21589e-09 -2.56873e-10 5.14499e-11 -9.78827e-12 1.77202e-12 -3.0579e-13 5.03718e-14 -7.92213e-15 
1.18393e-15 -1.64243e-16 1.90999e-17 -8.13493e-19 -6.33024e-19 3.66578e-19 -1.49603e-19 4.65723e-20 -5.16075e-20 -1.83998e-19 
-1.01608e-18 -5.29318e-18 -2.68322e-17 -1.31846e-16 -6.26448e-16 -2.8694e-15 -1.26237e-14 -5.31022e-14 -2.12384e-13 -8.0185e-13 
-2.83114e-12 -9.23094e-12 -2.73079e-11 -7.14241e-11 -1.58634e-10 -2.79799e-10 -3.5132e-10 -3.18595e-10 -7.11275e-10 -1.55957e-09 
-1.0633e-08 -4.10653e-08 -1.31005e-07 -3.43513e-07 -6.71883e-07 -5.53586e-07 2.7939e-06 1.88769e-05 7.41993e-05 0.000232886 
0.000634914 0.00156379 0.00355521 0.00751653 0.0146678 0.025825 0.0394862 0.0492725 0.0439908 0.0152179 
-0.0286568 -0.0576641 -0.0446968 -0.00557897 0.00573336 -0.027125 -0.0391816 0.0164027 0.0614963 0.0122384 
-0.0505471 -0.0237859 0.0239288 0.0208283 0.00437709 -0.0244017 -0.0193136 0.0438711 -0.00179063 -0.0461399 
0.0440053 -0.00646314 -0.025718 0.0353582 -0.0298137 0.0208292 -0.013898 0.00936685 -0.0062355 0.00391498 
-0.00225021 0.00117166 -0.000552823 0.000237457 -9.33933e-05 3.38261e-05 -1.13403e-05 3.53492e-06 -1.02849e-06 2.80246e-07 
-7.17222e-08 1.72839e-08 -3.93078e-09 8.4534e-10 -1.72221e-10 3.32941e-11 -6.11737e-12 1.07001e-12 -1.78538e-13 2.85233e-14 
-4.40347e-15 6.73896e-16 -1.09013e-16 2.08718e-17 -5.11547e-18 1.50864e-18 -4.73609e-19 1.51927e-19 -1.86896e-20 1.51522e-19 
7.4235e-19 3.88485e-18 1.96162e-17 9.58434e-17 4.51753e-16 2.04735e-15 8.88548e-15 3.67459e-14 1.43905e-13 5.29467e-13 
1.81134e-12 5.6823e-12 1.60337e-11 3.95808e-11 8.20349e-11 1.34492e-10 1.65255e-10 1.83563e-10 2.29133e-10 -1.26872e-09 
-2.04052e-11 1.21202e-08 7.27239e-08 3.1624e-07 1.1204e-06 3.35113e-06 8.47765e-06 1.76227e-05 2.70793e-05 1.53496e-05 
-8.67985e-05 -0.000458377 -0.00151216 -0.00412752 -0.00999125 -0.0217559 -0.0420834 -0.0702669 -0.0969392 -0.102686 
-0.070231 -0.00930455 0.0339133 0.0177081 -0.0309897 -0.0322182 0.0263296 0.0463884 -0.015679 -0.0457969 
0.0150644 0.040426 -0.0134197 -0.0278884 -4.10855e-05 0.0168672 0.0232992 -0.0326522 -0.0223443 0.0623586 
-0.0356134 -0.0208642 0.0537405 -0.0526316 0.0372927 -0.0247068 0.0183088 -0.0148194 0.0115336 -0.00803379 
0.00492939 -0.00267923 0.0013038 -0.000574063 0.000230771 -8.53306e-05 2.91984e-05 -9.29156e-06 2.76092e-06 -7.68629e-07 
2.01054e-07 -4.9533e-08 1.15181e-08 -2.53264e-09 5.27468e-10 -1.04206e-10 1.95538e-11 -3.48867e-12 5.92012e-13 -9.5396e-14 
1.44848e-14 -2.01751e-15 2.33632e-16 -1.1684e-17 -5.63835e-18 3.09373e-18 -1.11846e-18 3.45015e-19 -1.16473e-19 -6.91409e-20 
-5.18969e-19 -2.66357e-18 -1.34169e-17 -6.5198e-17 -3.04927e-16 -1.36759e-15 -5.85605e-15 -2.38121e-14 -9.1327e-14 -3.27549e-13 
-1.08637e-12 -3.2829e-12 -8.85802e-12 -2.07513e-11 -4.06123e-11 -6.33552e-11 -7.65569e-11 -6.71247e-11 1.16205e-10 1.17305e-09 
4.47047e-09 1.25986e-08 2.52023e-08 2.88594e-09 -2.73058e-07 -1.64411e-06 -6.69035e-06 -2.19617e-05 -6.13008e-05 -0.000148669 
-0.000316257 -0.000590631 -0.000952659 -0.00122819 -0.000795202 0.00204394 0.0108357 0.0305531 0.0633866 0.100218 
0.11596 0.0849502 0.0172007 -0.0275607 -0.000296677 0.0518403 0.0282237 -0.0555168 -0.0605309 0.0262108 
0.0459719 -0.0151802 -0.0135015 0.0173264 -0.00503711 -0.00701501 -0.00521614 0.00322791 0.0318432 -0.0433407 
0.000467736 0.0519253 -0.0666188 0.0480081 -0.0265062 0.0184914 -0.0201145 0.0220588 -0.02004 0.0150454 
-0.00960674 0.00535357 -0.00265556 0.00118984 -0.00048688 0.000183479 -6.40856e-05 2.08502e-05 -6.34356e-06 1.81049e-06 
-4.8598e-07 1.22952e-07 -2.93738e-08 6.63744e-09 -1.42069e-09 2.88437e-10 -5.56214e-11 1.02031e-11 -1.78431e-12 2.98748e-13 
-4.83511e-14 7.73365e-15 -1.27907e-15 2.34229e-16 -4.99968e-17 1.22064e-17 -3.18026e-18 8.33866e-19 -2.00059e-19 1.12498e-19 
3.1716e-19 1.71245e-18 8.58321e-18 4.15079e-17 1.92715e-16 8.55746e-16 3.6172e-15 1.44705e-14 5.43928e-14 1.90365e-13 
6.13082e-13 1.78923e-12 4.63638e-12 1.03818e-11 1.93897e-11 2.88786e-11 3.12975e-11 5.79633e-12 -1.1117e-10 7.60296e-12 
-1.55008e-09 -9.91439e-09 -4.27016e-08 -1.48494e-07 -4.15179e-07 -8.61824e-07 -8.19755e-07 3.20091e-06 2.30493e-05 9.02733e-05 
0.000274639 0.000708987 0.00162057 0.00337432 0.00650757 0.0115825 0.0183897 0.0241238 0.0217898 0.00318514 
-0.0297854 -0.0537542 -0.0366359 0.0175804 0.0468924 0.00369315 -0.0483048 -0.00775056 0.0698569 0.034741 
-0.0618241 -0.0469704 0.0213937 0.0199515 0.0143131 -0.00272506 -0.0309094 0.0197253 0.00150391 -0.0124182 