# vtk DataFile Version 2.0
Titre
ASCII
DATASET STRUCTURED_POINTS
DIMENSIONS 100 100 1
ORIGIN 0.0 0.0 0.0
SPACING 0.1 0.1 0.0
POINT_DATA 10000 
SCALARS rho float
LOOKUP_TABLE default
0.00183994 0.000418193 0.00195952 0.000892391 0.000116877 0.000313124 0.000538556 0.00041168 -0.000548231 -0.000867635 
-0.000365494 7.95557e-05 -0.00033348 -0.000502126 -6.50488e-06 0.00038819 0.000198861 -0.000240686 -0.00034801 -0.000150667 
0.000310184 0.00091138 0.0015669 0.00173224 0.000457006 -0.0021574 -0.00454803 -0.00492031 -0.00279802 0.000720032 
0.00365268 0.00470252 0.0037505 0.00162622 -0.00047929 -0.00174469 -0.00193379 -0.00127372 -0.000252121 0.000680828 
0.00122499 0.00129017 0.000959863 0.000389407 -0.00022326 -0.000728349 -0.00103559 -0.0011013 -0.000963599 -0.000652959 
-0.000261672 0.000167969 0.000553391 0.000871012 0.00107861 0.00117543 0.00116621 0.00106549 0.000905147 0.00069462 
0.000457292 0.000189024 -0.000102451 -0.000401667 -0.00068704 -0.000925452 -0.00109735 -0.00120796 -0.00130688 -0.00141256 
-0.00147055 -0.00143233 -0.00137218 -0.00132477 -0.00124286 -0.00102119 -0.000738793 -0.000457889 -0.000189871 0.0001873 
0.000622853 0.000932153 0.000978128 0.000765145 0.000546494 0.000387897 0.000347457 0.000319631 0.000130841 -3.67512e-05 
-0.000412664 -0.000505697 -0.000674578 -0.000596345 -0.000306513 -0.000308684 0.000165659 -7.11241e-05 0.000656461 0.00177532 
-0.00049707 -0.00201396 -0.000809209 -0.00248791 -0.000530139 0.000153441 0.000112108 -0.000573335 -0.000756066 -0.000195347 
0.000177563 -0.000247837 -0.000360259 0.000138265 0.000215508 8.91235e-05 -2.61083e-05 -0.00012334 -0.000385865 8.36488e-06 
0.00126189 0.00216559 0.00142719 -0.00169851 -0.00543595 -0.00643229 -0.00298141 0.00296966 0.00775073 0.00846561 
0.00504502 -6.07742e-05 -0.00424765 -0.0058165 -0.00474597 -0.00215303 0.000592588 0.00249109 0.00305525 0.0024758 
0.00113055 -0.000337121 -0.00153123 -0.0021166 -0.00206548 -0.00148042 -0.000586447 0.000367911 0.00117743 0.00170281 
0.00190067 0.00178352 0.00143031 0.00092344 0.000363351 -0.000177869 -0.000643291 -0.000996564 -0.00123961 -0.00135792 
-0.00139715 -0.00134706 -0.00126576 -0.00114428 -0.00101974 -0.00088504 -0.000746279 -0.000594832 -0.000442563 -0.000295009 
-0.000195461 -0.00013545 -0.000148482 -0.000221797 -0.000365881 -0.000507753 -0.000622633 -0.000637294 -0.000600272 -0.000476291 
-0.000341606 -0.00016634 -9.86561e-05 -0.000110164 -0.000287741 -0.000421947 -0.000560171 -0.00052905 -0.000415336 -0.00030741 
-0.000109546 -0.000103566 3.3214e-05 -0.000152766 -0.000417965 -0.000482101 -0.000566866 -0.000907281 -0.00135025 -0.000574502 
0.00062204 0.00122266 0.00150581 0.00112484 0.00243574 0.0005999 -0.000376911 -0.00061732 -0.000166305 0.000200706 
-0.000312422 -0.000503546 0.000205239 0.000245335 -5.75601e-05 -4.14231e-05 -0.000127042 -0.000499311 -0.000229481 0.00140181 
0.00242187 0.00137868 -0.0018736 -0.00518244 -0.00491816 -0.000378348 0.00482361 0.00637351 0.00321183 -0.00245239 
-0.00636252 -0.00638399 -0.00303109 0.00153503 0.00490937 0.00585439 0.00457677 0.00191826 -0.000845728 -0.00284576 
-0.00360769 -0.00313744 -0.00183445 -0.000157916 0.00135001 0.00235434 0.00270654 0.00239394 0.00164285 0.00060735 
-0.000403052 -0.00128842 -0.00186802 -0.00216196 -0.00215341 -0.00191457 -0.00152639 -0.00103665 -0.000549264 -6.96386e-05 
0.000320771 0.00063546 0.000834221 0.000936517 0.000934445 0.000870424 0.00073635 0.000613042 0.000466594 0.000376202 
0.000274448 0.00020255 7.49053e-05 -6.21727e-05 -0.000283542 -0.00047487 -0.000690367 -0.000777216 -0.000807831 -0.000676344 
-0.000506932 -0.000247351 1.15202e-05 0.000265983 0.000459641 0.000558664 0.000570568 0.000453186 0.00028467 3.78965e-05 
-0.000226382 -0.000413384 -0.000478539 -0.000281218 -0.000292913 -0.000557477 0.000203075 0.000579871 1.88807e-05 0.000661933 
-4.72748e-05 -0.0014862 -0.00198464 -0.00214121 -0.00153353 -0.00272135 -0.000977931 -0.000461007 4.64907e-05 -0.000241909 
-0.000488701 0.000314259 0.000436159 -0.000163835 -6.184e-05 -3.33504e-05 -0.000458523 -0.00033067 0.0014039 0.00273548 
0.00152793 -0.00160786 -0.00489789 -0.00484531 -0.00080131 0.00344154 0.00390988 0.00107132 -0.00209985 -0.00247196 
0.000425262 0.00374442 0.00518974 0.00375958 0.000358427 -0.00312268 -0.00521399 -0.00541808 -0.00381584 -0.0014069 
0.00112985 0.00291627 0.00370809 0.00341309 0.00229764 0.000785603 -0.000739912 -0.00190987 -0.00255354 -0.00262757 
-0.00221269 -0.00148502 -0.00061036 0.000224803 0.000924955 0.00140044 0.00166733 0.0017141 0.00162992 0.00141506 
0.0011707 0.000877468 0.000596158 0.000320101 5.33751e-05 -0.000156921 -0.000334373 -0.000401009 -0.000372119 -0.00020765 
4.4224e-05 0.000372591 0.000650227 0.000868036 0.000903725 0.000844233 0.000656997 0.000500189 0.000349571 0.000295141 
0.000231732 0.000139478 -2.79636e-05 -0.000238852 -0.000410674 -0.000469109 -0.00037202 -0.000180997 8.2327e-05 0.00026495 
0.000400547 0.000274795 3.01852e-05 -8.59472e-05 -5.95214e-06 -0.00092298 -0.00163711 -0.000613129 -0.000966353 -0.000893179 
0.000145418 -0.000592092 0.000656599 0.00196561 0.00187326 0.00141897 0.00184666 0.000287874 0.000321308 -0.000224308 
0.000243243 0.00040977 -0.000310365 -0.000213682 3.2766e-05 -0.000488073 -0.000466179 0.00114101 0.00278338 0.00169096 
-0.00125878 -0.00431659 -0.00484942 -0.00129465 0.00287543 0.00370361 0.00158292 -0.000439896 -0.000863856 0.000499863 
0.00103598 -0.000342756 -0.00247072 -0.00387492 -0.00339522 -0.00111294 0.00163613 0.003926 0.00485423 0.00431019 
0.00273601 0.000583584 -0.00138009 -0.00281058 -0.0033929 -0.00311747 -0.00225549 -0.00096366 0.000259845 0.00134046 
0.00194462 0.00216713 0.00195191 0.00146116 0.000828772 0.000138788 -0.000406116 -0.000857791 -0.00103504 -0.00108365 
-0.000902661 -0.000656015 -0.000336492 -7.96003e-05 0.000101829 0.000110935 2.64049e-05 -0.000203863 -0.000405886 -0.000586676 
-0.000629052 -0.000566756 -0.000410122 -0.000293474 -0.000263075 -0.000397705 -0.000619212 -0.00084244 -0.000897372 -0.000748393 
-0.000350065 6.83164e-05 0.00045437 0.000568212 0.000524101 0.000315481 0.000163154 4.10447e-05 -1.47229e-05 -5.0687e-05 
-4.2933e-05 0.000123512 -2.45626e-05 -0.000216132 0.000579523 0.000904666 -0.000380763 -0.000439331 -1.99438e-05 -0.000223145 
-0.000595732 -0.00154476 -8.12098e-05 -0.00124341 -0.00243779 -0.00247779 -0.00218448 -0.00169499 -0.000328993 -0.000555515 
5.88921e-05 -0.000312224 -0.000141779 0.000186858 -0.000383455 -0.000485677 0.000941603 0.00262535 0.00204739 -0.000576738 
-0.00326023 -0.00458025 -0.00209115 0.00200625 0.00326731 0.00143096 -0.00041068 -0.00107453 -0.000521829 0.000200744 
-0.000302785 -0.000342484 0.000524932 0.00184426 0.00281697 0.00253124 0.000889788 -0.00111404 -0.00311579 -0.00402492 
-0.00398112 -0.00293075 -0.00130034 0.000437212 0.00195874 0.00288701 0.00315695 0.00280448 0.00193676 0.000904486 
-0.000196335 -0.00103435 -0.00163013 -0.00186202 -0.00183335 -0.001589 -0.00122089 -0.000812321 -0.000396124 -2.2301e-05 
0.000327425 0.000600636 0.000862037 0.000965684 0.00104844 0.000881318 0.000688371 0.000301602 7.95897e-06 -0.000244311 
-0.000183642 3.83657e-05 0.000579835 0.00107869 0.00153147 0.00160583 0.00140629 0.000875823 0.000362623 -6.43321e-05 
-0.000139675 -4.57849e-05 0.00017883 0.000266334 0.000175547 1.0138e-06 -0.000148235 -3.24978e-05 0.000162409 0.000350814 
0.000255777 0.000341314 0.000476604 -0.000549257 -0.000898299 0.000268466 -5.4905e-05 -0.000776141 -0.000952025 -0.000867356 
-0.000773979 -0.000199585 0.000999479 0.000124947 0.00124629 0.00205101 0.00237862 0.00212201 0.00106554 0.000106913 
0.000609386 0.000279495 0.000312763 -0.000455158 -0.000556849 0.000651456 0.00208145 0.00210985 0.000228481 -0.00221685 
-0.0042392 -0.00330523 0.000688819 0.00275529 0.0015366 -0.000114148 -0.000529765 -0.000325577 0.000574375 0.000483291 
9.85377e-05 0.00034977 1.98644e-05 -0.000819088 -0.00175736 -0.00247735 -0.0020175 -0.000644366 0.00110691 0.00287124 
0.00368243 0.00379565 0.00297066 0.00162052 0.000102299 -0.00142486 -0.00242313 -0.00305307 -0.00295301 -0.00246253 
-0.00156869 -0.000559615 0.000346405 0.00109496 0.00142761 0.00156375 0.00129278 0.000995089 0.000526512 0.000227002 
2.81343e-05 4.63308e-05 0.00027246 0.000553478 0.000877097 0.000980621 0.000871578 0.000393271 -0.000243456 -0.00103613 
-0.00152528 -0.00177187 -0.00144421 -0.000861402 -7.80327e-05 0.00042602 0.000616114 0.000341236 -8.31326e-05 -0.000437551 
-0.000410421 -1.95703e-05 0.000531678 0.000989104 0.000973463 0.000636483 -1.19914e-05 -0.00041435 -0.000467104 -8.16318e-05 
1.52132e-05 -0.000110622 0.000906478 0.00110272 -0.000207236 -7.15879e-05 0.000462924 0.000190966 -0.000126477 -0.000462978 
-0.000473494 0.000154089 4.72213e-05 -0.000725417 -0.000771109 -0.00179124 -0.00229723 -0.00266324 -0.00211874 -0.000596486 
0.000168043 -0.00058412 -0.000843392 -0.000706167 0.00050574 0.0013454 0.00185889 0.00122668 -0.000872541 -0.00354513 
-0.00411438 -0.000630522 0.00243779 0.00190933 0.000360203 -0.000159441 -0.000278874 8.2538e-05 0.000421785 -0.000312224 
-0.000178304 -0.000224648 -0.000586228 -0.000216116 0.000578564 0.00141839 0.00223435 0.00179872 0.000816981 -0.000855109 
-0.00243788 -0.0033419 -0.00362906 -0.00300743 -0.00187763 -0.00046888 0.00107257 0.00221663 0.00318945 0.00345931 
0.0034336 0.00286444 0.00205318 0.00110156 3.39991e-05 -0.000838727 -0.00173677 -0.00229627 -0.00280544 -0.00293329 
-0.00290665 -0.0024678 -0.00184832 -0.000895397 1.31037e-05 0.000897687 0.001362 0.00136561 0.000839324 -7.59433e-05 
-0.00101264 -0.00164936 -0.00166789 -0.00105467 -1.84334e-05 0.000959028 0.00140759 0.00117134 0.000308184 -0.000637347 
-0.00124664 -0.00109132 -0.000435845 0.000558142 0.00118301 0.00141202 0.00104332 0.000431609 -0.000114586 -3.96849e-05 
0.000401391 -0.000650057 -0.000782117 0.000502446 0.000457564 -9.90573e-05 -3.33216e-05 -3.30394e-05 -0.000296749 -0.000343678 
-0.000413922 0.000103585 0.000217833 -0.000157916 6.39787e-05 0.000817076 0.00184997 0.00233378 0.00267977 0.0018731 
0.000220408 -0.000540371 0.000116854 0.000641563 0.000746541 0.00128992 0.00229529 0.000778762 -0.00268974 -0.00458457 
-0.00202096 0.00169234 0.00195358 0.000588872 -0.000128707 -0.00043824 -0.000420179 0.000371098 9.73453e-05 -0.000208533 
0.000172976 -0.000282957 -0.000126878 0.00032542 7.2464e-05 -0.000276885 -0.000869528 -0.00153562 -0.00122977 -0.000738862 
0.000593641 0.00175841 0.00260685 0.00306205 0.00267092 0.00201219 0.000842259 -0.000301635 -0.00133201 -0.0021174 
-0.00236063 -0.00235536 -0.00181425 -0.00122464 -0.000436541 0.00013392 0.000534823 0.000605684 0.000367123 2.38768e-05 
-0.000467343 -0.000578915 -0.000563545 0.000137162 0.000956299 0.00211829 0.00287887 0.00323086 0.00262599 0.00137853 
-0.000444946 -0.00202919 -0.00298074 -0.00273435 -0.00154489 0.00027979 0.00169735 0.00228173 0.00163007 0.000314111 
-0.00106658 -0.00164584 -0.00137973 -0.000462606 0.000379305 0.000757225 0.000725917 0.000388994 -0.000100169 -0.000476405 
0.000994012 0.00119193 -0.000277013 -0.00043281 0.000129712 0.000205137 0.000296085 0.000358186 0.000196907 -0.000244823 
-0.000260841 0.000795358 0.000232377 -0.000605313 -0.000233164 8.85691e-05 -0.00106358 -0.00200634 -0.00252469 -0.00257387 
-0.00150792 -0.00030046 5.16015e-05 -0.00044766 0.000467371 0.00281837 0.00220787 -0.00212484 -0.00486321 -0.00302489 
0.000758234 0.00173118 0.000811111 0.000146795 -0.000463333 -0.00048771 0.000428087 0.00072989 -0.000207881 3.44552e-05 
-0.000138496 -0.000408898 0.000152961 7.05815e-05 -0.000117919 0.00037304 0.000423855 0.000877905 0.00100858 0.000584338 
0.000128965 -0.000931113 -0.00160374 -0.0021277 -0.00239736 -0.0019586 -0.00155732 -0.000452981 0.000471267 0.0016756 
0.00267803 0.00340119 0.00399564 0.00393308 0.00383185 0.00299006 0.00211224 0.000654062 -0.00085663 -0.00251995 
-0.00402409 -0.00500492 -0.00535334 -0.00460884 -0.00304936 -0.000601925 0.00185214 0.00403365 0.00489129 0.00443515 
0.00245546 -0.000112707 -0.00254627 -0.00364012 -0.00318872 -0.00122467 0.00109827 0.00273653 0.00282734 0.00144641 
-0.000521418 -0.00194703 -0.0019598 -0.000827386 0.000744404 0.00146132 0.00130701 0.000723765 0.000352709 -0.00124187 
-0.000895739 0.00095674 0.00108235 0.000100089 -0.000144118 -0.00017994 -3.65178e-05 5.2456e-05 0.000218944 0.000138081 
0.000202615 0.000707525 -0.000851261 -0.000828852 0.000381473 0.000282737 -0.000343489 0.00104351 0.00193769 0.00259567 
0.00198972 0.000200991 -0.000610117 0.000342979 0.00304986 0.00304125 -0.0013237 -0.00413458 -0.00255904 0.000265318 
0.00109235 0.000762637 0.000688951 -0.000294427 -0.000626577 0.000440272 0.000887741 -0.000203588 -0.000461671 4.78936e-05 
-0.000502793 -8.43677e-05 0.000160688 -0.000115364 0.000311035 0.000382585 -0.000247757 -0.000396953 -0.00118307 -0.00112778 
-0.000757935 -0.000117846 0.000941919 0.00133719 0.00167521 0.00147178 0.000886317 0.000440536 -0.000372864 -0.000663282 
-0.00105844 -0.000909407 -0.000492037 0.00022172 0.00133376 0.00222006 0.00316139 0.00326507 0.00293971 0.00154529 
-0.000217122 -0.00245543 -0.00421375 -0.00521767 -0.00482989 -0.00302004 -0.000170327 0.00299295 0.005355 0.00603576 
0.00457318 0.00140174 -0.00236383 -0.00516078 -0.00574354 -0.00386176 -0.000285718 0.00311815 0.00489264 0.00401798 
0.0014114 -0.00169013 -0.00327095 -0.00295848 -0.000929605 0.000944394 0.00139383 0.000457443 0.000865072 0.000147601 
-0.00107134 -0.00042907 0.000865265 0.000667334 0.000184848 -0.000129428 5.36255e-05 9.79315e-05 0.000127622 0.000146953 
0.000296798 -9.92288e-05 -0.00105569 0.000357164 0.000881501 -0.000301721 -0.00048294 0.000309894 -0.00110978 -0.00200359 
-0.00326122 -0.00241 0.000264407 0.00232033 0.0028766 -2.31954e-05 -0.00217502 -0.00127012 -0.000727926 -0.001006 
-0.00022867 0.00120851 0.000149111 -0.00122668 0.00016976 0.000870733 -0.000245899 -0.000673473 0.000165803 -0.000244285 
-0.000370188 0.000359868 8.21328e-05 0.000251411 0.000511225 -0.000243405 -0.000386499 -0.00028393 -0.000225791 0.000653396 
0.000633438 0.000529997 -0.000211002 -0.0014554 -0.00207994 -0.0029474 -0.00278533 -0.00248892 -0.00179998 -0.000725602 
0.000152625 0.00159551 0.00270548 0.00431441 0.00557939 0.00680221 0.00747675 0.00724496 0.00616885 0.00362074 
0.000410508 -0.0037232 -0.00735698 -0.0101919 -0.0108331 -0.00921116 -0.00504192 0.000450429 0.00606922 0.00975403 
0.010389 0.00735991 0.00193511 -0.00403851 -0.00784382 -0.00816219 -0.00475451 0.000242742 0.00456043 0.00578806 
0.00403337 0.000412674 -0.00247333 -0.00332233 -0.00174106 0.00105212 0.00282956 0.000881175 -0.000498325 -0.000462744 
-0.000594231 -0.000694761 0.000469865 0.000920543 0.000659104 -4.40282e-05 -0.000184304 -3.54591e-05 6.73996e-05 4.66762e-05 
5.1144e-05 -0.000423449 -0.000246849 0.000769358 -0.000204659 -0.000988438 -2.87159e-05 0.000366152 -0.000491966 0.000528536 
0.000862269 0.00247412 0.00247783 0.00165212 0.00129865 -0.000148947 -0.000761593 -0.00256384 -0.00356233 -0.00065126 
0.00259449 0.0014119 -0.00162547 -0.000157987 0.00159836 -1.7453e-05 -0.000574558 0.000444318 0.000178664 -0.000467778 
0.000485518 0.000304288 -6.30988e-05 0.000334657 -0.000192173 -0.000595459 -6.96821e-05 -0.000221494 0.000154004 0.000113881 
-0.000534261 -0.000614517 -0.00112139 -0.000993017 -0.00074648 -0.000893409 -0.000683032 -0.00152298 -0.00209466 -0.00308169 
-0.00381106 -0.00375974 -0.00330079 -0.00133949 0.000993231 0.00447501 0.0077234 0.0106952 0.0122752 0.0119133 
0.0093392 0.00447553 -0.00162678 -0.00806456 -0.0128374 -0.0148292 -0.0128346 -0.00735384 0.000463496 0.00792909 
0.0126588 0.0125534 0.00774537 -3.09853e-05 -0.007255 -0.0107859 -0.0089749 -0.00310385 0.0036529 0.00745671 
0.00665767 0.00221153 -0.00267567 -0.00511981 -0.00443738 -0.00128076 0.00353674 0.00405533 0.0011234 -0.0013268 
-0.00155434 -0.00137612 -0.000299814 0.000495195 0.00077581 0.000451518 0.000130299 4.48036e-05 2.66839e-07 -0.000107609 
-3.85686e-05 -0.000138883 0.000118964 1.58282e-05 -0.000662088 -7.8221e-05 0.000698357 -7.1915e-06 -0.000613745 -0.000139869 
-0.00108166 -0.000492538 -0.000508574 0.00151281 0.00245947 -0.000102744 -0.00263971 -0.00346592 0.000761001 0.00422071 
0.00169777 -0.00242905 -0.00107689 0.00211407 -9.96104e-05 -0.00151701 0.000429657 0.000305644 -0.000918604 2.03838e-05 
0.000242177 -0.000695068 9.48787e-05 7.90208e-05 -0.000502985 7.63091e-05 0.000131073 -0.000115628 0.000202875 -0.000381132 
-0.000281322 -0.00034314 -0.000975788 -0.00114935 -0.00226026 -0.00305681 -0.00415996 -0.00554362 -0.00637041 -0.0075492 
-0.00774907 -0.00759818 -0.00635764 -0.00393339 -0.000547762 0.00417445 0.00907526 0.0141971 0.017783 0.019475 
0.0178601 0.0129862 0.00505952 -0.00444165 -0.0135973 -0.0198175 -0.021233 -0.0168097 -0.00745609 0.00428845 
0.0144684 0.019449 0.0170306 0.00823851 -0.00343181 -0.0124974 -0.0150738 -0.0100892 -0.000727923 0.0077214 
0.0105664 0.00696755 -1.75956e-05 -0.0050701 -0.00587 -0.00440124 0.00064964 0.00463703 0.00417492 0.000342638 
-0.00176788 -0.00190795 -0.000633043 0.000350686 0.000445628 0.000129974 3.63244e-05 0.000270644 0.000246508 -0.000119184 
4.1952e-05 1.1248e-05 -0.000278641 -0.000280289 8.90013e-05 0.000364649 -7.47633e-05 -0.000674531 -0.000375596 -0.000120305 
-0.000473863 0.00120598 0.00219185 0.00348695 0.000746414 -0.00275542 -0.00248315 9.22883e-05 0.0021718 -0.00120712 
-0.00387105 -0.0011066 0.00254159 0.000166845 -0.00237888 0.000929032 0.00151487 -0.00107787 -0.000251174 0.000923593 
-0.000496448 0.000199855 0.000974274 -0.000263496 9.78201e-05 0.000391581 -0.000346659 9.04524e-05 9.84125e-05 -1.45713e-05 
0.000325814 -0.000477857 -0.000706584 -0.000914298 -0.00167805 -0.0019754 -0.00365034 -0.00542769 -0.00807098 -0.0112512 
-0.0138911 -0.0164914 -0.0172094 -0.0165137 -0.0131093 -0.00728101 0.000797159 0.0103829 0.0197158 0.0273009 
0.0308959 0.0293811 0.0219387 0.00986808 -0.00499104 -0.0188004 -0.0281417 -0.0297547 -0.0229292 -0.00907207 
0.00716722 0.0202889 0.0249214 0.0195512 0.006194 -0.00850446 -0.017806 -0.0172035 -0.00790381 0.00452553 
0.0126095 0.0122254 0.00414114 -0.00484503 -0.00725726 -0.005836 -0.00147812 0.003011 0.00508125 0.00230106 
-0.00132459 -0.00280148 -0.00161946 0.000302395 0.00086345 0.00020315 -0.000396869 -2.62195e-05 0.000510813 1.2344e-05 
7.03365e-05 -0.000239742 -0.000500401 0.000320237 0.000451594 -0.000435203 -0.000435637 5.74047e-06 7.35803e-05 -0.000460524 
-0.000224769 0.0016698 0.00236786 0.00245454 -0.000111609 -0.000695536 7.29651e-05 -0.000432093 -0.0014879 -0.0012736 
0.00292392 0.00411838 0.00013167 -0.00260448 0.00130779 0.00279562 -0.00165998 -0.00133796 0.00152631 -0.000238886 
-0.000773929 0.00115171 -0.00037502 -0.000752848 0.00045742 -0.000513045 -0.000112219 0.000816148 0.000303249 0.000689593 
0.000318815 7.11326e-05 0.00082483 0.000293242 -0.000112437 -0.00153142 -0.00418646 -0.00709483 -0.0113294 -0.0155453 
-0.0202192 -0.0246836 -0.0279661 -0.0297136 -0.0281764 -0.0232679 -0.0140334 -0.00161629 0.0130247 0.0270597 
0.0380042 0.0428982 0.039964 0.0288578 0.0113423 -0.00907591 -0.0272255 -0.03806 -0.0377957 -0.0260302 
-0.00604134 0.0152238 0.0295748 0.0312571 0.0194487 -1.66731e-05 -0.0176308 -0.0245278 -0.0181932 -0.00302282 
0.0113342 0.017353 0.0117988 -0.0016324 -0.00958795 -0.00916695 -0.00297051 0.00266578 0.00569463 0.00403109 
-5.02226e-05 -0.00283322 -0.00260788 -0.00036193 0.00109523 0.000683728 -0.00050694 -0.000685278 0.0004256 0.000236859 
-0.000111975 -0.000454999 -7.5508e-05 0.000842901 -0.000280155 -0.000905145 0.000475075 0.000337371 -0.000731514 -0.000793315 
0.000648339 0.00219174 0.00180611 0.000457638 -0.00217123 -0.00291994 -0.00298696 -0.00167346 0.00140549 0.00331626 
0.00117741 -0.00439484 -0.00431956 0.00118118 0.0027729 -0.00259857 -0.00285098 0.00211413 0.000487696 -0.00204525 
0.000984636 0.000591794 -0.0014193 0.000724088 0.000391593 -0.000295123 0.00159072 0.000783831 0.000701881 0.00164728 
0.00163326 0.00318157 0.00378782 0.00368474 0.0041875 0.0027198 0.00129316 -0.00184805 -0.00671116 -0.0131912 
-0.0221328 -0.03166 -0.0416502 -0.049444 -0.0535552 -0.0519674 -0.0434281 -0.0281647 -0.0072609 0.0161085 
0.0382645 0.0544837 0.0613467 0.0560768 0.0394825 0.0140166 -0.0140242 -0.0380346 -0.0503377 -0.0472526 
-0.0286746 -0.00104603 0.0254627 0.0399581 0.0361956 0.0164498 -0.0092646 -0.0269757 -0.0283093 -0.0137681 
0.00559841 0.0185552 0.0197432 0.00647146 -0.0082019 -0.0140503 -0.00787706 0.00135034 0.00682642 0.00591473 
0.00096524 -0.00314712 -0.00371093 -0.00123031 0.00123911 0.00151142 5.50963e-05 -0.00125759 -0.000175598 0.000364611 
-0.000321435 -0.000325455 0.000459794 0.000495859 -0.00109368 -8.54357e-05 0.00119946 -0.000737547 -0.00133237 8.01697e-05 
0.00135042 0.00157348 0.00106375 0.000953188 0.000753416 0.00161258 0.00272296 0.00346048 0.00214045 -0.00189618 
-0.00437829 -0.000883824 0.00554488 0.00418057 -0.00249963 -0.00248703 0.00375589 0.00229384 -0.00260058 0.000696589 
0.00239895 -0.0014956 0.000241384 0.00185353 -0.000512708 0.00121856 0.00175429 0.000479564 0.0030701 0.00376327 
0.00508715 0.00753989 0.00840741 0.0111127 0.0127757 0.0134052 0.0137376 0.0106357 0.00559677 -0.00348341 
-0.0157437 -0.0307647 -0.0476426 -0.0633653 -0.0761973 -0.0821575 -0.0797709 -0.0666293 -0.044205 -0.014032 
0.0186599 0.048697 0.0697893 0.0774533 0.0692142 0.0461451 0.0130957 -0.0222076 -0.0499817 -0.0617134 
-0.0528848 -0.0257733 0.00957526 0.0390717 0.0492967 0.0362488 0.00631977 -0.0233956 -0.0370451 -0.0275264 
-0.003763 0.0158758 0.024233 0.0150853 -0.00197008 -0.0151071 -0.0139305 -0.00283012 0.00717557 0.00907968 
0.00371537 -0.00268719 -0.00503549 -0.00285734 0.000596346 0.00198806 0.00120774 -0.000963933 -0.000945286 0.000260077 
-0.000307897 -1.91566e-06 0.00062262 -0.000225913 -0.000914696 0.00102027 0.00042538 -0.00195189 -0.000491063 0.000926505 
0.000814946 0.0010703 0.0017454 0.00149966 -0.000834672 -0.00327025 -0.00448592 -0.00501234 -0.00414093 -0.00167239 
0.00285437 0.00481657 7.19896e-05 -0.00626489 -0.00306706 0.00418765 0.00180124 -0.00484406 -0.00134305 0.00299451 
-0.00180457 -0.00183912 0.00233123 -0.000632038 -0.00073706 0.00246706 0.000685835 0.00278445 0.00566912 0.00579921 
0.0101089 0.0133905 0.0175568 0.0238564 0.0278185 0.0334684 0.036443 0.0367418 0.0338044 0.0243624 
0.00996836 -0.0116967 -0.0372475 -0.0654465 -0.091723 -0.111503 -0.120946 -0.115707 -0.0959339 -0.0619906 
-0.0199209 0.0249533 0.0630425 0.0886312 0.0949946 0.0817142 0.0500233 0.00804951 -0.0346868 -0.0649665 
-0.0735002 -0.0556333 -0.0179177 0.0252113 0.0541697 0.0559789 0.0300758 -0.00884989 -0.0383533 -0.0418918 
-0.0171888 0.0112732 0.0280633 0.0230135 0.0047691 -0.0134129 -0.0185487 -0.00897745 0.00468967 0.0108581 
0.00695549 -0.00106726 -0.00563005 -0.0043185 -0.000253725 0.00178911 0.00181309 2.36182e-06 -0.00117923 -3.77183e-05 
-0.00012401 0.000193068 0.000337864 -0.000609764 -0.000128538 0.00112003 -0.00101531 -0.00169498 0.000763073 0.000339171 
4.7448e-05 0.00163685 0.00202381 -7.91825e-05 -0.00240174 -0.00110016 0.00303595 0.00609933 0.00759581 0.00534432 
0.00110008 -0.004065 -0.00465551 0.00140009 0.00682495 0.00116297 -0.00603814 -0.000872888 0.00555809 3.195e-05 
-0.00282103 0.00336949 0.00148881 -0.00149734 0.00343453 0.00312106 0.00218766 0.00746205 0.00784574 0.0116324 
0.0186198 0.0234943 0.0333085 0.0427894 0.0530325 0.0657326 0.074426 0.0824954 0.0836562 0.0774571 
0.0624356 0.0363445 0.00227306 -0.0398106 -0.0826585 -0.122545 -0.150682 -0.16284 -0.154043 -0.124957 
-0.0793402 -0.0240316 0.0306826 0.0762193 0.103296 0.108256 0.0887649 0.0499575 -0.000311083 -0.0480123 
-0.0786103 -0.0805567 -0.0514315 -0.00281504 0.0443606 0.0662465 0.0535489 0.0130946 -0.0298697 -0.0529979 
-0.0375403 -0.00166944 0.0290317 0.0333963 0.0144916 -0.00968405 -0.0214324 -0.0150054 0.0011973 0.0119274 
0.0102707 0.00107229 -0.00606954 -0.00604353 -0.000990031 0.00195922 0.0018464 0.000634278 -0.000888704 -0.000220616 
0.000123642 0.000128374 7.81827e-05 -0.000458923 0.000413491 0.000265234 -0.0016398 -0.00050845 0.000681687 -0.000925405 
0.000571919 0.00249446 0.00114432 -0.00110011 -0.000921529 0.00129369 0.000927025 -0.00334876 -0.00714289 -0.00946719 
-0.00645517 -0.000781345 0.00495373 0.00388904 -0.00311183 -0.00690126 0.00137185 0.00756108 -0.000274604 -0.00540513 
0.00228658 0.00306964 -0.00332899 0.00159648 0.00417561 0.00045762 0.00550967 0.00923796 0.0101144 0.0198604 
0.0268137 0.0371865 0.053161 0.0680202 0.08953 0.110485 0.130586 0.149666 0.159701 0.162802 
0.150762 0.124669 0.0821612 0.0260687 -0.0373893 -0.102448 -0.156114 -0.193299 -0.203156 -0.18716 
-0.144757 -0.0863076 -0.0198937 0.0411428 0.0884808 0.113645 0.11402 0.0883882 0.04298 -0.0136121 
-0.06327 -0.0908195 -0.0812853 -0.0388668 0.020767 0.0654166 0.0734154 0.0403671 -0.00950768 -0.0505057 
-0.0538925 -0.0216419 0.020488 0.0403329 0.0272971 -0.00256862 -0.0229666 -0.0217982 -0.00433443 0.0118965 
0.0139521 0.00425132 -0.00582884 -0.00823458 -0.00253528 0.0026594 0.00237381 0.000749122 -0.000673976 -0.000261471 
0.00026836 -7.05522e-05 4.59471e-05 -0.000181771 0.000308225 -0.000512976 -0.0011366 8.04928e-05 -0.000524153 -0.00100445 
0.0019577 0.00202608 -0.000382192 -0.000934438 0.000243773 0.00026964 -0.00141775 -0.000858999 0.00392099 0.00808565 
0.0105262 0.00703247 0.000712515 -0.0049314 -0.00212508 0.00508853 0.00639666 -0.00423334 -0.0082228 0.00200027 
0.00512349 -0.00379321 -0.000839682 0.00612597 0.000815165 0.00317302 0.0108559 0.0102871 0.018263 0.0296942 
0.0380496 0.0576738 0.0781517 0.103451 0.136916 0.168422 0.205875 0.238999 0.265595 0.282044 
0.278213 0.256389 0.208016 0.140561 0.0551777 -0.0357915 -0.120959 -0.188783 -0.226499 -0.232075 
-0.202555 -0.149427 -0.0798511 -0.0107026 0.0509016 0.093204 0.115035 0.110025 0.0818138 0.0308905 
-0.0275133 -0.0779376 -0.0966967 -0.074496 -0.0168388 0.0472868 0.0813446 0.0646983 0.0133144 -0.0408216 
-0.0623943 -0.0405518 0.00629644 0.0405107 0.0394211 0.00856436 -0.0211504 -0.0275238 -0.0113274 0.00996441 
0.017419 0.00839815 -0.00444132 -0.0101157 -0.00536636 0.00274379 0.00389032 0.00115281 -0.000791509 -0.000359326 
0.000349212 -0.000200997 0.000202676 -0.000153341 -0.00011895 -0.000642404 -0.000514331 -0.000505858 -0.00127638 0.0001876 
0.00219763 0.000353201 -0.000565852 0.000556133 0.000473629 -0.000998222 -0.000850239 0.00123607 0.00111787 -0.00399189 
-0.00870318 -0.0109171 -0.00704949 -0.000685774 0.00401754 -0.000543005 -0.00726863 -0.00527138 0.007318 0.00849549 
-0.00283576 -0.00239629 0.00797914 0.00295281 0.000220551 0.0106774 0.0113654 0.01378 0.0286021 0.0367424 
0.0537833 0.0803298 0.106027 0.146224 0.190138 0.239551 0.297059 0.348041 0.397353 0.429879 
0.442471 0.428337 0.380169 0.30405 0.197892 0.0803518 -0.0408432 -0.142943 -0.21576 -0.24736 
-0.238139 -0.194926 -0.130462 -0.0603782 0.00426109 0.0547308 0.0892242 0.1044 0.0985143 0.068296 
0.0164309 -0.0430819 -0.0886435 -0.094688 -0.0561435 0.0144342 0.0754936 0.0866924 0.0436938 -0.0233281 
-0.0651013 -0.0581915 -0.0106344 0.0358496 0.0483063 0.0214257 -0.0165523 -0.0321697 -0.0190591 0.00590683 
0.0198231 0.0131526 -0.00195739 -0.0107341 -0.00841309 0.00127415 0.00541513 0.00243657 -0.000818351 -0.000639094 
0.0004744 -0.000221522 0.000326571 -0.000401317 -0.000300533 -0.000233209 -0.000499706 -0.00139314 -0.000789355 0.00113755 
0.00106836 -0.000276094 0.0007377 0.000657828 -0.0013712 -0.00145017 0.00115594 0.00189042 -0.000278239 -0.00125514 
0.00328723 0.00845869 0.0105003 0.006638 0.000810756 -0.00210146 0.0040459 0.0097301 0.00406974 -0.00924739 
-0.00649573 0.00580988 0.00282999 -0.00487233 0.00640901 0.0109059 0.00777276 0.0216401 0.0337825 0.0437476 
0.0723855 0.0996897 0.137194 0.190893 0.245802 0.317742 0.392017 0.466534 0.540179 0.592879 
0.627578 0.623648 0.582832 0.499597 0.378052 0.2342 0.0788108 -0.0590642 -0.168985 -0.228576 
-0.242693 -0.210843 -0.155614 -0.0888555 -0.031241 0.0159405 0.0478615 0.0731344 0.0852589 0.0836366 
0.0535174 0.0027345 -0.0579737 -0.0924854 -0.0836343 -0.0279706 0.0474414 0.0895065 0.0727301 0.00452812 
-0.057862 -0.0727052 -0.0317406 0.0260875 0.0538834 0.0354661 -0.00788229 -0.0348164 -0.026912 0.000321275 
0.0205873 0.0178201 0.000839536 -0.0106495 -0.0104048 -0.000804676 0.00603191 0.00406755 -0.000402826 -0.000983115 
0.000585117 -0.00018443 0.0002622 -0.000676531 -8.65484e-05 5.35213e-05 -0.0011408 -0.00158779 0.000361129 0.00086017 
-0.000163242 0.000427386 0.00121249 -0.000732064 -0.00148951 0.00107851 0.00217133 -0.000987391 -0.00280277 -0.0011291 
0.0009642 -0.00208614 -0.00707171 -0.00885595 -0.00552383 -0.000976258 -0.000671379 -0.00786354 -0.0115448 -0.00161889 
0.0118184 0.0060725 -0.00391863 0.00540597 0.0146142 0.00730431 0.0160517 0.0323461 0.0371884 0.0593823 
0.0906244 0.119831 0.173075 0.23233 0.303017 0.393912 0.483648 0.585497 0.679124 0.756353 
0.811216 0.820621 0.789862 0.701071 0.569816 0.399603 0.214866 0.0398808 -0.103414 -0.191581 
-0.2245 -0.201334 -0.149268 -0.0837789 -0.0336311 0.000730267 0.0150533 0.0295699 0.0445095 0.0642927 
0.0662691 0.041069 -0.0139629 -0.0692587 -0.0877269 -0.0590007 0.0136686 0.0744827 0.0876439 0.0351613 
-0.0389456 -0.076731 -0.0522455 0.0101787 0.05383 0.0473109 0.00358972 -0.0343622 -0.0344011 -0.00613866 
0.0200618 0.0223564 0.00403478 -0.0109528 -0.0119921 -0.00239059 0.00621578 0.00552383 0.000271141 -0.00131613 
0.000734215 -0.000144011 7.30151e-05 -0.000694995 0.000368068 -7.83091e-05 -0.0017818 -0.00092323 0.000898115 -0.000401497 
-0.000210994 0.00164276 0.000437002 -0.00158159 -0.000145722 0.00155394 -0.000767075 -0.00265535 0.000851261 0.00364002 
0.00268163 -0.000324545 0.000615877 0.00456445 0.00591427 0.00372719 0.00140227 0.00450579 0.0123927 0.0137956 
0.0008596 -0.00964639 0.00142577 0.011878 0.00326653 0.00499368 0.0239409 0.0280266 0.0392916 0.0713888 
0.0957857 0.137085 0.198752 0.261211 0.351342 0.451136 0.559435 0.682256 0.790697 0.892879 
0.961536 0.988658 0.96537 0.876633 0.738602 0.547385 0.340105 0.130963 -0.0396776 -0.15659 