# vtk DataFile Version 2.0
Titre
ASCII
DATASET STRUCTURED_POINTS
DIMENSIONS 100 100 1
ORIGIN 0.0 0.0 0.0
SPACING 0.1 0.1 0.0
POINT_DATA 10000 
SCALARS rho float
LOOKUP_TABLE default
-0.000685138 -0.00145593 -0.00113507 0.000635429 0.0018919 0.00459195 0.00361721 0.00275609 -0.000271247 -0.00122371 
-0.00181634 -0.000650722 0.000235945 0.000629211 3.40001e-05 0.000126107 -0.000209438 -0.000684527 -0.000701241 0.000715075 
0.000870135 -0.000293168 -0.000850092 7.64683e-05 0.00078859 0.000228593 -0.000631401 -0.000226179 0.000903655 -3.00733e-05 
-0.000627634 0.000285178 0.000629748 -0.000710844 0.000183985 0.000332754 -0.000243335 -6.86002e-05 0.000285841 -0.000164305 
-5.57768e-06 0.000159277 -0.000102782 6.39561e-05 3.21521e-05 -5.92038e-06 1.04907e-05 2.96405e-05 -1.74387e-05 1.62452e-05 
1.51913e-05 -7.46822e-06 3.365e-05 -1.33538e-06 1.71196e-05 6.61358e-06 -8.69069e-06 -3.00912e-07 -2.18758e-05 -8.90281e-06 
-1.77287e-05 -7.98949e-06 -5.64547e-06 -1.60122e-06 3.04676e-06 2.5027e-06 4.31323e-06 7.7566e-07 -2.8884e-06 -1.14504e-05 
-2.58542e-05 -4.5997e-05 -7.86726e-05 -0.000114613 -0.000162156 -0.000192351 -0.000205734 -0.000140701 1.22179e-05 0.000334928 
0.000804724 0.00144643 0.00211296 0.00269437 0.00294513 0.00279171 0.00221571 0.00150612 0.00091252 0.000619598 
0.00033562 -0.000390111 -0.00156777 -0.00238968 -0.00143496 0.00116589 0.00316871 0.00186945 -0.00109743 -0.00158806 
0.000124961 -0.000885021 0.001236 0.00139243 0.00213502 0.00189869 0.000286443 -0.000565038 -0.000648392 0.000124213 
0.000479456 0.00081373 0.000326773 -0.000626349 -0.000145285 0.000263972 -0.000529789 -0.000726014 0.00104547 0.00161127 
-0.00104964 -0.00120632 0.000439577 0.00154466 -0.00012989 -0.000947791 -0.000279077 0.0013628 0.000263226 -0.00144616 
0.000478967 0.00125214 -0.00106792 -0.000299276 0.00110273 -0.000432656 -0.000545181 0.000895662 -0.000441115 -8.25659e-05 
0.00027927 -0.0001102 -9.27187e-05 0.000160477 -7.93208e-05 -2.72348e-05 8.20273e-05 -5.38957e-05 1.38484e-05 4.05788e-05 
-3.61257e-05 2.8901e-05 -2.2166e-06 -2.7538e-05 1.73332e-05 -4.02361e-05 5.23002e-06 -1.63522e-05 -3.89507e-06 9.74382e-06 
1.29086e-06 2.2843e-05 1.05938e-05 2.50508e-05 1.68368e-05 2.44217e-05 2.2667e-05 2.99131e-05 3.72818e-05 5.25897e-05 
7.49235e-05 0.000107222 0.000150702 0.000202007 0.000258622 0.00030441 0.000330407 0.000309118 0.000243142 0.000125685 
1.94743e-05 -1.88066e-05 0.000135374 0.00052596 0.00115821 0.00184624 0.0023536 0.00243245 0.0021292 0.00170888 
0.00158102 0.00158941 0.00107789 -0.000611728 -0.00277644 -0.00303057 -0.000456621 0.00272864 0.00193794 -0.000452711 
-0.000557387 -0.000263638 0.00320229 0.00251656 0.00477325 0.00360287 0.00243591 0.000939581 -0.000215001 -0.00226943 
-0.0016888 -0.000919321 0.000257645 0.000692585 0.00173422 -0.000358739 -0.00107245 -5.6205e-05 0.00181233 -0.00109955 
-0.000900554 0.00100302 0.00128628 -0.000949523 -0.000690485 0.000455726 0.000851328 0.000169109 -0.00137187 0.000427658 
0.00134411 -0.000831058 -0.00114995 0.00194317 -0.000632497 -0.000896258 0.00105482 -5.17564e-05 -0.000780198 0.000742551 
-0.000134012 -0.000366853 0.000439431 -0.000213242 -1.35929e-05 9.96021e-05 -4.13172e-05 -2.71527e-05 5.99827e-05 -3.67392e-05 
-2.50282e-05 3.93853e-05 -7.41465e-05 2.92053e-05 -2.18811e-05 -1.07379e-05 3.46663e-05 -1.48871e-05 4.68549e-05 8.62807e-08 
2.8489e-05 5.27341e-06 3.4868e-06 -3.07572e-06 -1.71549e-05 -1.92267e-05 -3.77369e-05 -4.70926e-05 -7.53355e-05 -0.000104973 
-0.000156326 -0.000219396 -0.00030442 -0.000399806 -0.000499329 -0.000575869 -0.000600024 -0.000525648 -0.000316968 5.48674e-05 
0.000570943 0.00117504 0.00174977 0.00217044 0.00233228 0.00221491 0.00189545 0.00149121 0.00110483 0.000737521 
0.000336789 -6.15951e-05 -0.000431891 -0.000618325 -0.000701106 -0.00057743 0.000103612 0.000792535 0.000655371 -0.00138745 
-0.00199053 0.00214332 -0.000521781 0.000961491 -0.000203644 -0.000813942 -0.00165787 -0.000542069 -0.00114748 0.000142608 
0.00177799 0.00158519 3.81037e-05 0.000293731 -0.000757529 -0.00140285 -0.000495457 0.00180665 0.000188511 -0.00101415 
0.00112857 0.000130467 -0.00126626 -7.3807e-05 0.00180782 -0.000587559 -0.000664977 -1.17619e-05 0.000482667 0.000511242 
-0.000601906 -0.000860755 0.00157809 -0.000209516 -0.00139648 0.00118963 0.000438419 -0.00155913 0.00120319 -6.55924e-05 
-0.000676261 0.000591719 -6.71503e-05 -0.000317706 0.00034624 -0.000142593 -5.7677e-05 0.000112014 -7.88411e-05 -1.87258e-05 
4.19597e-05 -4.49054e-05 6.47979e-06 4.77876e-05 -3.80745e-05 7.51355e-05 -1.94441e-05 2.78097e-05 4.53336e-06 -2.46585e-05 
2.93916e-06 -4.70731e-05 -8.1774e-06 -4.19806e-05 -9.99811e-06 -2.02637e-05 7.26508e-06 2.07072e-05 5.94064e-05 0.000105244 
0.000177215 0.000269598 0.000388007 0.000520964 0.000655034 0.000759126 0.000799057 0.000734991 0.000548365 0.000252491 
-7.98195e-05 -0.000325683 -0.000337655 -1.52747e-05 0.000608921 0.0013412 0.00185199 0.00190126 0.00146973 0.000922163 
0.00063201 0.000705839 0.000589662 -0.000280705 -0.00172156 -0.00233851 -0.00106129 0.00145729 0.00221745 0.000619713 
0.00128493 0.0018918 0.000675196 0.00255568 0.00175319 0.00188981 0.002272 0.000545932 -0.00157536 -0.00168419 
-0.00175157 -0.00251639 -6.92061e-05 0.00209826 0.00051521 -0.000252583 2.14715e-05 0.00095775 -0.0015815 0.000742277 
-0.000108935 -0.00093661 0.000542692 0.00199868 -0.00140312 -0.00202451 0.00215217 0.000668133 -0.00106934 -0.000729415 
0.000937741 0.000236122 -7.61046e-06 -0.00138297 0.0014333 0.000251636 -0.00151411 0.000892405 0.000694242 -0.00147887 
0.000892898 0.000242333 -0.000893079 0.00075425 -0.000223647 -0.000209398 0.000300838 -0.000176455 6.67464e-06 7.81204e-05 
-4.0208e-05 8.37792e-06 7.2918e-05 -4.31168e-05 4.13369e-05 6.51508e-06 -5.02574e-05 3.68613e-05 -7.74291e-05 2.57459e-05 
-4.18925e-05 1.37872e-05 6.22658e-06 1.58385e-05 3.44058e-05 1.78795e-05 3.03593e-05 -4.52767e-06 -2.17244e-05 -8.69543e-05 
-0.000156452 -0.000272385 -0.000404057 -0.000562185 -0.000708459 -0.00081588 -0.000830349 -0.000708641 -0.000420655 2.09577e-05 
0.000548942 0.00104716 0.00138525 0.00147846 0.00134897 0.00111904 0.000962679 0.00093075 0.000922213 0.000704604 
0.0001741 -0.000418007 -0.000765278 -0.000672572 -0.000625332 -0.000778086 -0.000822656 -0.000283102 0.000260093 8.25364e-06 
-0.00191983 -0.00119503 -0.00345982 -0.000812224 -0.00308341 -0.000301298 -0.000243096 -0.00160002 0.000339191 0.00156801 
0.00158655 0.00106567 0.00284847 -0.000661399 -0.00273793 -0.00209822 0.00143337 0.000254764 2.85089e-05 0.000722211 
-0.00091115 0.000187369 0.000973731 -0.000902089 -0.00194018 0.00262535 0.00112486 -0.00283325 -0.000392975 0.00258149 
-0.000581632 -0.00131338 0.000188376 0.00119373 -0.000286438 -0.00121157 0.000778305 0.00106569 -0.00194061 0.000908946 
0.000752468 -0.00142335 0.000782416 0.000294024 -0.000885962 0.000748625 -0.00022973 -0.000187075 0.000338222 -0.000215918 
6.59092e-05 4.8123e-05 -6.72356e-05 -6.07933e-06 1.76225e-05 -9.94481e-05 4.1626e-05 -5.72644e-05 -1.79433e-06 2.57301e-05 
-3.27162e-05 5.7289e-05 -4.14649e-05 3.44009e-05 -4.73366e-05 -4.34465e-06 -4.81405e-05 -1.61509e-05 -1.19018e-05 4.64992e-05 
0.000115956 0.000234739 0.000376854 0.000546429 0.000702223 0.000811964 0.000816328 0.000677912 0.000378351 -3.83038e-05 
-0.000468083 -0.000755856 -0.000756765 -0.000414678 0.000164515 0.000720839 0.000942345 0.000691798 7.9914e-05 -0.000406734 
-0.000517494 -0.000127623 6.18823e-05 -0.000340832 -0.00140517 -0.00208204 -0.00132664 0.000608869 0.00142677 -0.000591709 
-0.00157881 -0.000217822 -0.00152412 0.00113089 -0.000658254 0.00385457 -0.000707932 -0.00047857 -0.00102058 -0.00244263 
-0.00444551 -0.000822554 0.000303175 4.50524e-05 0.000382422 0.00233431 0.00107408 -0.00198594 7.63793e-05 -0.000433819 
-0.000368554 0.000339181 0.000267799 -0.000449478 0.000680558 0.000966587 -0.00291365 0.000672173 0.00246598 -0.000693719 
-0.00293081 0.00235861 0.000808406 -0.00130958 -0.000802165 0.00153186 0.000149664 -0.00146292 0.00051248 0.0013544 
-0.00185631 0.000578228 0.00103615 -0.00156561 0.0008837 0.000186741 -0.000797413 0.000747632 -0.000320483 -0.000102291 
0.000251349 -0.000240834 6.42421e-05 1.34244e-05 -6.76609e-05 4.54687e-05 4.24027e-05 -3.01945e-05 0.000129842 -4.00902e-05 
0.000109904 5.73223e-06 6.39983e-05 6.28186e-05 5.97455e-05 0.00011695 9.32881e-05 0.000149533 0.00010581 0.000106762 
9.41222e-06 -8.58659e-05 -0.000260463 -0.000436825 -0.000626356 -0.000748427 -0.000765141 -0.000617058 -0.000299866 0.000141915 
0.0005959 0.000916449 0.000987761 0.000799636 0.000492243 0.000295572 0.000373234 0.000692002 0.000833593 0.000543852 
-0.000416631 -0.00131006 -0.00166079 -0.00107911 -0.000469458 -0.000526518 -0.00107752 -0.00078907 0.000369697 0.000432916 
-0.00114626 -0.00224729 -0.00122663 -0.00193019 0.000936381 0.0012659 -0.000572061 0.00190624 0.00236238 0.000169766 
0.00212533 0.00415646 0.000740301 -0.00160003 -0.00298676 -0.000814859 -0.00206694 0.00105923 0.00190831 -0.000420714 
-0.000329986 0.000202402 0.000488877 -0.000888021 -0.000158508 -0.000410624 0.000980024 0.00124666 -0.00169092 -0.00170218 
0.00270918 0.000891232 -0.00296075 0.000361116 0.00229693 -0.00119191 -0.00122583 0.00120565 0.000790119 -0.00169567 
0.000378933 0.00141578 -0.00169862 0.000391838 0.00110269 -0.00157789 0.000939351 5.361e-05 -0.000719161 0.00076711 
-0.000444829 6.67056e-05 0.000183104 -0.000167698 0.000135642 3.11326e-05 -4.69237e-05 7.1102e-05 -5.71688e-05 -6.2348e-05 
-1.81841e-05 -0.000184621 -4.23227e-05 -0.000251878 -0.000135753 -0.000312534 -0.000261734 -0.000380082 -0.000351912 -0.000382542 
-0.000296921 -0.000199534 -3.94097e-06 0.000206884 0.000445949 0.000613771 0.000677244 0.000560944 0.000278597 -0.000120375 
-0.000496786 -0.00069756 -0.000608419 -0.000253109 0.000186782 0.000445233 0.000262001 -0.000201977 -0.000852317 -0.000994768 
-0.000878894 -0.000425666 -0.000472752 -0.000959285 -0.00168833 -0.0019012 -0.00117674 0.00012805 0.000743297 -0.000520415 
-0.00369 -0.00205721 -0.0020555 -0.00192304 0.00159341 -0.00202867 -0.000470185 -0.00068367 -0.00302773 -0.00580886 
-0.000744931 -0.00168605 -0.000347247 -0.000201891 0.00306224 0.0022059 0.000819103 0.000428001 -0.00202759 -0.00168153 
0.000576115 0.000655869 0.000170169 -0.00102049 0.00118133 0.00040435 -0.000196083 -0.00222529 0.00115518 0.0017898 
-0.000174629 -0.00323645 0.00173244 0.00238772 -0.0024031 -0.00126047 0.00280173 -0.000529572 -0.00171665 0.00101864 
0.00111293 -0.001718 0.000231159 0.00148547 -0.00171324 0.000476915 0.000951776 -0.00150384 0.00106099 -0.00016084 
-0.000498524 0.000729129 -0.000523063 0.000211797 2.25172e-05 -0.000159712 6.71822e-05 -5.55756e-05 -8.79147e-05 0.000102424 
-7.07092e-05 0.000166745 0.000104421 0.000227345 0.000324193 0.00035762 0.000536821 0.000534961 0.000691659 0.000639588 
0.00066842 0.00050031 0.000340835 5.0334e-05 -0.000211885 -0.000455306 -0.000555556 -0.000484856 -0.00022745 0.000140835 
0.000479496 0.000635706 0.000522545 0.000197734 -0.000144934 -0.000179901 2.38617e-05 0.000578948 0.000583975 0.000209324 
-0.00100127 -0.00188476 -0.00208534 -0.0012905 -0.000513775 -0.000565552 -0.0011755 -0.000821654 0.000659737 0.000281136 
-0.00189269 0.00014069 -0.000738858 0.00138216 0.00179796 0.000751433 0.00396942 0.00323064 -0.000450968 0.00252914 
0.00324321 0.00166779 -0.000202309 -0.00234549 -0.00225526 -0.00405443 -0.000549291 0.00018055 0.00147272 0.00185872 
6.32691e-06 -0.000309597 -0.000599215 -0.00011814 0.000144497 -0.000259248 -0.000835755 0.00163114 0.00110893 -0.00241418 
-0.00105801 0.00253335 0.00120155 -0.00317498 -0.000383202 0.00354833 -0.0014068 -0.00251548 0.00277806 0.000210936 
-0.00209695 0.000926358 0.00120026 -0.00161449 0.000112843 0.00152418 -0.00176802 0.000668083 0.000730687 -0.00142827 
0.00121829 -0.000512577 -0.000206063 0.000525817 -0.000551124 0.000325259 -8.533e-05 -1.98197e-05 0.000132472 -4.83859e-06 
1.12154e-05 8.03912e-05 -0.000194872 -6.9514e-06 -0.00040047 -0.000264384 -0.000626809 -0.000579644 -0.000833847 -0.000786809 
-0.000861075 -0.00068629 -0.000532522 -0.000201327 7.97324e-05 0.000374374 0.000488517 0.000448429 0.000197021 -0.000137653 
-0.000428547 -0.000508079 -0.00030689 0.000105062 0.000392995 0.000536284 -1.90006e-05 -0.000414326 -0.00107282 -0.00087477 
-0.000676708 -0.000372478 -0.000705284 -0.00130819 -0.00171626 -0.00155103 -0.000955333 -0.000214421 0.000660341 0.000939872 
0.000254585 -0.00216332 0.000805208 -0.00255478 -4.05746e-05 -0.00203066 0.00213611 -0.00397699 -0.00386149 -0.00109875 
-0.00232381 0.00105584 -0.00033888 0.00315786 0.00229897 0.00365905 0.00214007 -0.00103253 -0.00148475 -0.00245298 
-0.00158614 0.00224977 -4.07846e-05 -3.20114e-05 0.000175077 0.000828118 -0.000882127 0.000660658 -0.00215231 0.000844913 
0.00259463 -0.00120634 -0.00280798 0.00164853 0.00268663 -0.00237321 -0.00216554 0.00370024 -0.0001169 -0.00334362 
0.00247743 0.000833979 -0.0023644 0.000953464 0.00112966 -0.00153103 0.000166213 0.00137809 -0.00177528 0.000890306 
0.000374447 -0.00124406 0.00130417 -0.000838882 0.000213934 0.000237772 -0.000404027 0.000320235 -0.000214 -4.91477e-05 
4.79614e-06 -0.000195903 3.54442e-05 -4.5994e-05 8.71714e-05 0.000261973 0.000296465 0.000605917 0.000583605 0.000832539 
0.000709735 0.000729981 0.000441864 0.000210074 -0.000153741 -0.000405246 -0.000548511 -0.000483848 -0.000234683 9.23737e-05 
0.00035937 0.000388524 0.000131374 -0.000174412 -0.000610477 -0.000285113 -0.000156791 0.0006711 0.000492713 0.000112057 
-0.00107311 -0.00185864 -0.00193018 -0.00120362 -0.000482253 -0.000488381 -0.000983966 -0.000772601 0.000425265 0.000851365 
-0.00289049 -0.00176944 -0.000437315 -0.00331331 0.00137746 0.000750093 0.00401041 -0.00269856 0.00265831 -0.000801705 
0.00102493 6.54055e-05 -0.00292103 -0.0029734 -0.00470872 -0.00204014 -0.00290196 0.00108925 0.00328129 0.000931325 
0.00222927 0.000486846 -0.00293497 -0.000449179 0.00156199 -0.00142074 -0.000131342 0.00108871 0.000138458 0.000905207 
-0.00194524 -0.00151328 0.00351698 0.000469036 -0.00336147 1.88607e-05 0.00341569 -0.000913538 -0.00363615 0.00349953 
0.000918649 -0.00383325 0.00230557 0.00104445 -0.00239206 0.00100044 0.000971786 -0.00146918 0.00033138 0.00115406 
-0.00173919 0.00124148 -9.0826e-05 -0.000790278 0.00124919 -0.00100526 0.000655611 -0.000103145 -4.76029e-05 0.000316918 
-3.09274e-05 0.000211731 0.000246616 1.06335e-05 0.000317005 -0.000186428 9.27384e-05 -0.000436911 -0.000264834 -0.000655751 
-0.000466806 -0.000592317 -0.000250426 -0.000101892 0.000319093 0.000502957 0.000686252 0.000573094 0.000350338 6.82979e-06 
-0.000214291 -0.000190507 -4.786e-05 0.000544714 0.00038298 0.00067693 -0.000317533 -0.000494636 -0.00105015 -0.000636684 
-0.000294962 -0.000151437 -0.000622273 -0.00127614 -0.00145421 -0.00102154 -0.000511163 -0.000152678 0.000642491 0.00069997 
-0.000491855 0.00199534 -0.000732887 5.18222e-05 0.00130034 0.0033898 -8.32429e-05 0.000183714 0.000284076 -0.0011984 
0.00353892 0.00175123 0.00308048 0.0032695 0.00504618 0.00278593 0.000204735 0.000901066 -0.00366657 -0.00511462 
0.000868448 -0.000649454 0.000597617 0.00247945 0.000499321 -0.00239124 0.00241116 -0.00117088 -0.00117244 0.000286845 
0.000313285 0.00205126 -0.000923792 -0.00346037 0.00271667 0.00242844 -0.00312852 -0.00140503 0.00322762 0.000726327 
-0.00457414 0.00299643 0.00185016 -0.00434516 0.00251748 0.000830549 -0.00225658 0.00117293 0.000640265 -0.00128515 
0.000487423 0.000856832 -0.00169082 0.00150965 -0.000795511 -0.000256621 0.000692436 -0.00109141 0.000640167 -0.000658142 
-6.3662e-05 -0.000222089 -0.000433868 -0.000193419 -0.000377501 -0.000245544 -8.31397e-05 -9.3625e-05 0.000284356 0.000192042 
0.000491099 0.000277986 0.000273197 -7.64956e-05 -0.000325722 -0.000608514 -0.000744804 -0.000671252 -0.000453566 -0.000145074 
1.52336e-05 0.000168924 -0.000393364 -0.000153549 -0.000938786 -1.57566e-05 -8.90538e-05 0.0008033 0.000563817 9.88095e-05 
-0.000827161 -0.00143165 -0.0013809 -0.000832052 -0.000319758 -0.000272875 -0.000569288 -0.000550754 0.000552668 0.00231577 
0.00369744 -0.00193958 -8.25025e-05 -0.00268068 0.000959576 0.00016262 -0.00160658 0.00083658 -0.00529983 -0.000340422 
-0.00169986 -0.00346942 -0.00456468 -0.003759 -0.00271508 -0.00461563 0.000527763 0.00409343 0.0005051 0.00469522 
0.00401782 -0.00224737 -0.00192129 -0.000105096 -0.00249949 0.000980836 0.00156559 -0.00196258 0.00188489 0.00100135 
-0.00190115 -0.000240171 -0.00107071 0.00285867 0.000939779 -0.00452379 0.00120027 0.00353225 -0.00208838 -0.00253953 
0.00268937 0.00199061 -0.00501631 0.00255346 0.00239076 -0.00471025 0.0029502 0.000271526 -0.0019525 0.00130401 
0.000199453 -0.00106871 0.000615302 0.000482099 -0.00143243 0.00178133 -0.00126186 0.000777795 0.000237223 -0.000205639 
0.000901883 -0.000103957 0.000703017 0.000414766 0.000340161 0.000666059 2.70162e-05 0.000488637 -0.000312383 8.86541e-05 
-0.000571159 -0.00013365 -0.00044064 0.000116863 0.00013814 0.00062317 0.000644093 0.000713336 0.000496193 0.000303042 
-9.16495e-05 0.000369152 -0.000207439 0.000982889 4.3129e-05 0.000628495 -0.000464834 -0.000557461 -0.000782233 -0.000401307 
6.02933e-07 1.07981e-05 -0.00045882 -0.000993006 -0.000995132 -0.000435212 6.29231e-05 8.74683e-05 0.000141041 0.00106269 
-0.00194316 -0.00402914 -0.00163634 -0.00342478 0.00122842 -0.000669965 0.00358917 -0.000622454 -0.00100304 0.00508374 
0.00203361 0.00293929 0.00309048 0.00511994 0.00181746 -0.0010162 0.00200976 -0.00362075 -0.00751738 -0.000901682 
-0.00323286 -0.000935092 0.00358965 0.00302724 -0.00110057 0.00233344 -0.00246827 -0.000633885 0.00131494 -0.00234074 
0.000573716 0.0026176 -0.00101865 -0.000233255 -0.00260242 0.00209406 0.00337824 -0.00493029 -0.000118509 0.00369204 
-0.000861426 -0.00313398 0.00192732 0.00302785 -0.00547736 0.00265878 0.00229546 -0.0048221 0.00360932 -0.000692642 
-0.00117286 0.00119411 1.27627e-05 -0.000817978 0.000881194 -5.7638e-06 -0.000939111 0.00149763 -0.00177525 0.00107963 
-0.00108969 -0.000142972 -0.000432919 -0.000796171 -0.000340292 -0.000733293 -0.000376636 -0.000276657 -0.00014703 0.000264755 
0.000250905 0.00053291 0.000371675 0.00024374 -2.90873e-05 -0.000392111 -0.000499272 -0.000674857 -0.000510068 -9.841e-05 
-0.000529433 0.000561275 -0.000951114 0.000296893 -0.000937776 0.00011692 6.24428e-05 0.000573502 0.000491747 4.62227e-05 
-0.00051129 -0.000856603 -0.000781878 -0.000460462 -0.000169374 -4.8467e-05 -5.57408e-05 7.17715e-05 0.000719128 0.000771993 
-0.000291972 0.00267933 4.45877e-05 0.00279386 0.000129011 0.00550701 0.00238325 -0.00353731 0.000987341 0.000204436 
-0.00238154 -0.00315722 -0.000593751 -0.00111473 -0.00251612 0.000563775 0.0067941 0.000889964 0.00583737 0.00644275 
5.04725e-05 -0.000675831 -0.00122374 -0.00519706 -0.00116922 0.00169182 -0.00130216 0.00292898 0.000282325 -0.00139467 
0.0024176 -0.00283264 -0.00130241 0.00268645 0.000120059 0.000809988 -0.0034343 0.000161769 0.00541491 -0.00463159 
-0.00115499 0.00348246 -3.28689e-05 -0.00315739 0.00113459 0.00382145 -0.00606172 0.00336791 0.00148497 -0.0045266 
0.00419693 -0.00200514 -3.17438e-05 0.000437061 3.09337e-05 -0.00104423 0.00113076 -0.000910061 3.43156e-05 0.000769142 
-0.000982233 0.00155314 -0.000598276 0.00122695 0.000321902 0.000584994 0.000806917 -5.10641e-05 0.000626539 -0.000667574 
0.000110147 -0.00103275 -0.000180854 -0.000773052 7.35834e-05 -4.69963e-05 0.000530577 0.00052033 0.000174298 0.000875191 
-0.000862996 0.00108077 -0.000878816 0.00097409 -0.000102782 0.000350677 -0.000174373 -0.000405801 -0.000402969 -0.00020835 
4.69036e-05 2.61375e-05 -0.000291347 -0.000602616 -0.000518244 -8.65635e-06 0.000421543 0.000339075 0.000569791 0.00235805 
0.00605308 -0.000173995 0.000264359 -0.00235046 -0.00280996 0.00577446 -0.00660783 -0.00166903 0.000772987 -0.000721687 
-0.00123212 -0.000369601 0.00236236 -0.00207475 -0.00348245 -0.00177387 -0.00327029 -0.00971446 -0.00207939 -0.00511 
-0.00203837 0.00289192 0.00403224 0.00169547 0.00522664 -0.00200071 -0.00206938 0.000569328 -0.00309372 0.000632479 
0.00179764 -0.00195846 0.00395586 -0.00150133 -0.00314254 0.00187184 0.00023488 0.00244751 -0.00340339 -0.0018944 
0.00651513 -0.00398079 -0.0017243 0.00306227 0.000488668 -0.0030505 0.000723751 0.00417107 -0.00667895 0.00470394 
-0.000235584 -0.00325425 0.00416955 -0.00285084 0.00137872 -0.000322285 0.000776406 -0.00106801 0.00192359 -0.00164575 
0.00141692 -0.000813149 -9.84307e-05 -7.80863e-05 -0.00101821 -3.64867e-05 -0.000987313 -0.000107037 -0.00037863 0.000208868 
0.000300614 0.000703535 0.000525638 0.000761218 0.000145261 0.000156422 -0.000532584 8.00488e-05 -0.00135039 0.00115866 
-0.00152947 0.0014794 -0.000918572 0.000436421 -0.000423769 -0.000156858 3.58988e-05 0.000172758 0.00025543 6.41503e-05 
-0.000202106 -0.000380845 -0.000386368 -0.000263326 -8.20706e-05 0.000156358 0.000400132 0.000442997 0.000310331 0.00140094 
0.000201917 -0.00544096 -0.00259778 -0.00796779 0.00313165 0.00171523 -0.00580183 0.00411985 0.000775738 0.000593619 
3.57524e-05 0.00285948 0.00320301 0.00125257 0.0030516 0.007865 0.00383876 0.0056524 0.00684062 0.000367929 
0.000348092 -0.00205862 -0.0068216 -0.003799 -0.000842919 -0.00290965 0.00459902 0.0023182 -0.000969667 0.00307281 
-0.00256563 -0.0018224 0.00182749 -0.0033947 0.00413301 0.00116006 -0.00394439 0.00108836 -0.000858899 0.00402788 
-0.00279036 -0.00355483 0.00705943 -0.00369407 -0.00152906 0.00235137 0.000938545 -0.00312785 0.000907859 0.00388674 
-0.00708408 0.00638087 -0.00294907 -0.000733647 0.00248106 -0.00266071 0.00144306 -0.00105145 0.000419911 -0.0013447 
0.00134852 -0.00212081 0.00189374 -0.00151786 0.00139962 -0.000160585 0.000518192 0.000752583 -0.00039547 0.000780949 
-0.00117089 0.000293418 -0.00139256 -7.80367e-05 -0.000682636 0.000214068 -0.000327333 0.0015995 -0.0014147 0.00223527 
-0.00190081 0.00103967 -0.000865953 0.000161789 0.000150548 0.000146945 0.000167831 -6.5483e-05 -0.000159902 -0.000142941 
-5.59195e-05 -2.16932e-05 -0.000120268 -0.000254604 -0.000206446 0.00015026 0.000601312 0.000739632 0.000611333 0.000217315 
-0.00175728 0.00283852 -0.00231252 0.0027329 0.0097028 -0.000206828 0.00242834 0.0047263 0.000353103 -0.000818931 
-0.000453547 -0.000505727 -0.00224421 -0.00457913 -0.00428075 -0.00331316 -0.0081348 -0.0015026 -0.00438764 -0.000373138 
0.00419072 0.00498888 0.00377308 0.00817273 0.000255025 -0.00149739 0.000220969 -0.00616334 -0.00136226 0.00226039 
-0.00239263 0.00456853 0.000547248 -0.00250343 0.00228471 -0.00492654 0.00244273 0.0035767 -0.00375416 0.00101945 
-0.00254242 0.00501429 -0.00189269 -0.0047208 0.00745148 -0.00403679 -0.000634796 0.0014 0.00144009 -0.00355897 
0.00191052 0.00255543 -0.00646087 0.00753338 -0.00564228 0.00290769 -0.000438141 -0.000112648 0.00043755 0.00063916 
-0.000233029 0.000814935 0.000210412 -0.000263529 0.000773482 -0.0011539 0.00069339 -0.0012364 0.000555447 -0.000780758 
0.000908924 -0.000283407 0.00143095 -0.000336702 0.00107979 9.82349e-05 -0.00141603 0.00184503 -0.00316457 0.00229023 
-0.00158 0.0011128 0.000129392 9.84577e-05 3.55504e-05 -0.000297382 -0.0002078 -8.04776e-05 7.14131e-05 0.000127313 
3.57291e-05 -0.000115762 -0.000215493 -0.000190281 -2.60553e-05 0.000260896 0.000576454 0.000665838 0.00071608 0.00174809 
0.00679795 0.00349109 -0.00383528 0.00662378 -0.00217202 -0.00498201 -0.000471027 -0.00357394 -0.00337762 -0.00323045 
-0.000162695 -0.00106289 0.00206438 0.000547109 0.00361734 0.00231588 0.00243464 0.00314223 -0.00379206 -0.00151279 
-0.00495846 -0.00895543 -0.00592199 -0.00231672 -0.00518959 0.00434684 0.00430263 0.000804795 0.00616359 -0.00137719 
-0.00390676 0.00172354 -0.00526099 0.00241607 0.0028683 -0.00221287 0.00392176 -0.00535116 -5.52024e-05 0.0047158 
-0.00313058 0.00164135 -0.00417171 0.0055424 -0.00135302 -0.00508193 0.00761628 -0.00481376 0.000760525 0.000196629 
0.00213122 -0.00446955 0.00386996 -0.000395166 -0.0038236 0.00625903 -0.00661789 0.00495096 -0.00360565 0.00191372 
-0.00215526 0.00149064 -0.00243627 0.00173595 -0.00192567 0.00118821 -0.000427532 0.000112234 0.000892156 -0.00097122 
0.00109761 -0.00161965 0.000599794 -0.00116244 -0.00099145 0.0021759 -0.00356622 0.00472439 -0.00322999 0.00256238 
-0.00106283 -0.000178605 -0.000212921 -0.000435394 0.000103657 0.00021349 0.000282509 0.00016863 -3.9798e-05 -0.000164023 
-0.00014682 -4.48328e-05 1.11899e-05 -3.93281e-05 -6.90631e-05 0.000145099 0.000605891 0.000831203 0.00036069 0.0013074 
0.00472962 -0.00860736 -0.00353512 -0.00110511 -0.0089881 3.82721e-05 -0.000175922 -0.00095266 0.00165693 0.00232826 
0.00110829 0.0011233 0.00281614 -0.00100214 0.000675225 -0.000657765 0.0036626 0.00111436 0.00382244 0.0089368 
0.00708317 0.00555413 0.00943907 0.00131574 -0.00219458 0.000394294 -0.00791766 -0.00507364 0.00050643 -0.00404269 
0.00517063 0.00455307 -0.00254394 0.00407419 -0.00562649 -0.00121766 0.00330674 -0.00294097 0.00601033 -0.00454191 
-0.00202148 0.00465483 -0.0027586 0.00282599 -0.00567625 0.0061854 -0.00177741 -0.0043157 0.00721545 -0.00557401 
0.00230335 -0.0010964 0.00285722 -0.00546185 0.00635844 -0.00453468 0.00137512 0.00181701 -0.00313066 0.00364587 
-0.00236552 0.00211808 -0.000801929 0.00129874 -0.000754145 0.00129891 -0.00132023 0.00127194 -0.00172877 0.00170563 
-0.00187309 0.00230723 -0.0017206 0.00378506 -0.00430857 0.00634244 -0.00632958 0.00444322 -0.00314617 0.00051546 
0.000204882 -0.000200716 0.000735035 0.00016571 6.3774e-05 -0.000190667 -0.00031783 -0.000201388 3.35078e-06 0.000157363 
0.000144649 -9.17376e-06 -0.000154819 -0.000154694 5.56829e-06 0.000258332 0.000561736 0.000814467 0.000506719 -0.000676275 
-0.00472868 -0.00479385 0.00401851 -0.00150141 0.00389987 0.00869983 0.00339921 0.00378414 0.00536062 0.00244219 
-0.00242204 0.00281688 -0.000447507 -0.00210166 -0.0032098 -0.00146539 -0.00328009 -0.00860621 -0.00558774 -0.00694201 
-0.0102434 -0.0062212 -0.000510542 -0.00412834 0.00554206 0.00713472 0.0021219 0.00869415 0.00224988 -0.00401385 
0.000847646 -0.00797894 -0.00212826 0.00509557 -0.00245748 0.00667627 -0.00258926 -0.00358365 0.00330732 -0.00504131 
0.00735192 -0.00309254 -0.00293771 0.00405024 -0.00290681 0.00423629 -0.00701892 0.00724267 -0.00340755 -0.00210307 
0.00559704 -0.00540284 0.00313601 -0.00172282 0.00269907 -0.00524637 0.00726323 -0.00766607 0.00603944 -0.00413789 
0.00186679 -0.00129003 0.000420688 -0.00110266 0.000664083 -0.00089749 0.000317748 0.000498413 -0.00108407 0.00178511 
-0.00157502 0.000946996 -0.00248387 0.00311873 -0.00624792 0.00559692 -0.0044803 0.00227802 0.000458161 -0.000518316 
0.000962223 -0.000612329 -0.000256164 -0.00027645 -0.000155719 0.000180602 0.00027785 0.000217032 1.93838e-05 -0.000154111 
-0.000169574 -4.50563e-05 6.95717e-05 5.05897e-05 -2.44932e-05 8.3341e-05 0.000463739 0.000833055 0.000883544 -0.00016529 
-0.00154235 0.010123 0.00237364 4.78763e-05 0.00727877 -0.00165773 -0.00561861 -0.00409917 -0.00174436 -0.00867435 
-0.00686209 0.00118964 -0.00392723 -0.000816778 -0.000498127 0.00647306 0.0015445 0.00511583 0.00857478 0.00590027 
0.00275544 0.00516776 -0.00139004 -0.00744977 -0.00250294 -0.00979148 -0.00835434 -0.000163102 -0.00580195 0.00335724 
0.00812428 0.000410992 0.0072415 -0.00368666 -0.00691117 0.00307106 -0.00505878 0.00631514 0.00107283 -0.0039923 
0.00408813 -0.00744062 0.00757681 -0.00190412 -0.0026846 0.00313205 -0.00316645 0.00529437 -0.00794372 0.00852525 
-0.00603736 0.00163182 0.00209227 -0.00325834 0.00206619 -0.000553362 0.000439241 -0.00192962 0.00411262 -0.00536712 
0.00572998 -0.00444793 0.0034139 -0.00163924 0.00107556 -0.000388112 0.000342738 -0.000658449 0.00122387 -0.00318185 
0.00440909 -0.00313934 0.000454408 0.00502392 -0.00550179 0.00583029 -0.00229566 2.74514e-05 0.00040385 -0.00109428 
-4.35915e-05 0.000162202 0.000116589 0.000402399 0.000126593 -8.91166e-05 -0.000228355 -0.000214635 -3.94404e-05 0.000125797 
0.000152029 2.87151e-05 -0.000110364 -0.00012088 9.90747e-06 0.000203507 0.000433988 0.000617063 0.000642645 0.00144229 
0.00708759 0.005909 -0.0108587 -0.000943682 -0.00128857 -0.0110288 -0.00575392 0.00143171 0.00263083 -0.00420189 
0.00609257 0.00644905 0.00150797 0.00189806 0.00190379 0.00235878 -0.00543621 7.99041e-05 -0.00153243 -0.00305065 
0.000575105 0.00644212 0.00351913 0.00931697 0.0122794 0.00376523 0.00821384 0.00408347 -0.00542452 0.000660418 
-0.00868257 -0.0090903 0.00325477 -0.00274083 0.00924682 0.00431261 -0.00635427 0.00344945 -0.00749723 0.00351572 
0.00282869 -0.00356129 0.00580187 -0.00933166 0.00729243 -0.00172079 -0.00125011 0.00168489 -0.0028302 0.00530836 
-0.00776678 0.00906132 -0.00839082 0.00583096 -0.00260773 0.000704152 -0.00072282 0.00203593 -0.00302964 0.00290803 
-0.0018805 0.000311849 0.000517357 -0.00122649 0.00115784 -0.00127671 0.00146647 -0.00220419 0.00452341 -0.00507284 
0.00226731 0.00452354 -0.0126363 0.0140933 -0.0130816 0.00580041 -0.00221217 -0.000515227 0.00109458 0.000112891 
0.000359143 0.000111931 -0.000162418 -0.000328849 -0.000149906 -9.69487e-06 0.000178664 0.000190309 6.05025e-05 -9.11702e-05 
-0.000138459 -4.99216e-05 6.20024e-05 6.86592e-05 -6.75669e-06 3.082e-05 0.000333267 0.000670783 0.00034882 0.000491506 
0.00388631 -0.00991182 -0.010215 0.00591287 -5.77125e-05 -0.00236136 0.00741196 0.0136169 0.00373561 0.00135033 
0.00906186 0.000299731 -0.000455477 -0.00193165 0.00148933 -0.00264201 -0.00300028 0.000840521 -0.00361563 -0.00621818 
-0.00448767 -0.00902313 -0.0134269 -0.00757084 -0.00971134 -0.0090509 0.00255891 -0.00194594 0.00304793 0.0112289 
0.00266498 0.00935476 0.00345043 -0.0108545 -0.00083673 -0.00915533 0.00301984 0.0084515 -0.00473987 0.00644927 
-0.00741559 0.000727763 0.00250148 -0.00341756 0.00784462 -0.0104828 0.00709539 -0.00266973 0.00121999 -0.000630791 
-0.00122449 0.00352961 -0.00544544 0.00699578 -0.00793519 0.00729625 -0.00540704 0.00312555 -0.00208924 0.00202884 
-0.002625 0.002732 -0.00208743 0.000655162 0.00103504 -0.00224764 0.00322935 -0.00478645 0.00320927 0.00321241 
-0.0149923 0.0243935 -0.024055 0.0169401 -0.00388236 -0.00203115 0.00590003 -0.00394784 0.00190032 -0.00121657 