# vtk DataFile Version 2.0
Titre
ASCII
DATASET STRUCTURED_POINTS
DIMENSIONS 100 100 1
ORIGIN 0.0 0.0 0.0
SPACING 0.1 0.1 0.0
POINT_DATA 10000 
SCALARS rho float
LOOKUP_TABLE default
-0.00129104 -0.000860678 0.00120029 -0.000147159 0.000169992 -0.000502944 -0.00104808 -0.000989176 5.08997e-05 0.000291216 
-0.000119579 -0.000279144 0.000207402 0.000414042 -0.000156722 -0.000486111 -0.000247179 0.000292552 0.000402176 -7.80022e-05 
-0.000554661 -0.000675398 -0.000560912 -0.00017611 0.00103213 0.00265765 0.00353453 0.00257342 -0.000285274 -0.00364647 
-0.00561976 -0.0052014 -0.00277688 0.000384019 0.00280449 0.00377343 0.00323917 0.00182476 0.000232374 -0.000975493 
-0.00156126 -0.00152835 -0.00108427 -0.000428115 0.000207694 0.00071676 0.00100195 0.00106497 0.00092407 0.000622095 
0.000238268 -0.000188469 -0.00056992 -0.00089348 -0.00110124 -0.00120882 -0.00120034 -0.00109769 -0.000911352 -0.000650292 
-0.000338064 1.29248e-05 0.000364567 0.000685005 0.000953578 0.00115924 0.001337 0.00152205 0.00171904 0.00186666 
0.00192041 0.00190741 0.00188868 0.00180901 0.00161907 0.00130556 0.000980713 0.000593702 7.31434e-05 -0.000669509 
-0.0014244 -0.00197225 -0.00213133 -0.00191666 -0.00151481 -0.00100667 -0.000537749 -9.11629e-05 0.000245909 0.000395118 
0.000463327 0.00028484 0.00035375 0.000287604 0.000426135 0.000538557 0.000219396 -6.75424e-05 -0.000297947 0.000660889 
-0.000225987 0.00143271 5.11728e-05 -0.00178451 -0.00186985 -0.00172221 -0.000413368 0.000582823 0.0002446 -0.000322592 
-2.71827e-05 0.000114229 -4.37734e-05 -0.000445085 -0.000174063 8.68427e-06 1.43118e-06 0.00026399 0.000202565 -0.000292295 
-0.000923711 -0.00089544 0.000154007 0.00243122 0.00421293 0.00314469 -0.000816082 -0.00565135 -0.00818817 -0.00649527 
-0.00136662 0.00423369 0.00768703 0.00758775 0.00465057 0.000580264 -0.00286973 -0.00459413 -0.00447187 -0.0030298 
-0.000997981 0.000834727 0.00209324 0.00253138 0.0022831 0.00150562 0.000495562 -0.00051847 -0.00134024 -0.00185666 
-0.00203077 -0.00188401 -0.00148521 -0.000916542 -0.000275875 0.000367111 0.000940706 0.00141204 0.00176063 0.00197307 
0.00208192 0.00206929 0.00200017 0.00184781 0.00167123 0.00145012 0.00122062 0.000981403 0.000767948 0.000576009 
0.000444664 0.000346 0.000328027 0.000367105 0.00049064 0.000633578 0.000818527 0.00099216 0.00117027 0.00124993 
0.00123068 0.00106404 0.000832506 0.000532034 0.000279173 -3.46724e-05 -0.000237433 -0.000432781 -0.000453747 -0.000363607 
-0.000212126 8.46415e-05 0.000281549 0.000681727 0.000751924 0.00080407 0.000922584 -0.000137951 -0.0012612 0.000165956 
8.44003e-07 -4.99907e-05 -0.00149729 -0.00118189 0.000464136 0.000955986 0.00145999 0.000178265 -0.000673681 -1.13377e-05 
0.000256193 -0.000164029 -0.000449798 -2.6229e-05 0.000347499 -8.18904e-05 0.000194697 0.000336491 -0.000304876 -0.00110624 
-0.000994754 0.000352264 0.00252647 0.00405523 0.00219075 -0.00207518 -0.00559775 -0.00557516 -0.00160202 0.00368103 
0.00641023 0.00504689 0.000699703 -0.00410206 -0.00666121 -0.00624941 -0.00336908 0.000375824 0.00346133 0.00502812 
0.00489389 0.00343995 0.00139256 -0.000700126 -0.00225244 -0.00312232 -0.00319207 -0.00263025 -0.00164311 -0.000435293 
0.000701209 0.00168813 0.00231524 0.00264532 0.00260205 0.00231262 0.00180854 0.00118926 0.000542892 -0.000101543 
-0.000651588 -0.00112752 -0.00147194 -0.00171344 -0.0018342 -0.00186842 -0.0018007 -0.00169409 -0.00150434 -0.00132603 
-0.00110191 -0.000925643 -0.0007438 -0.000647156 -0.000554147 -0.000569936 -0.000581247 -0.00067644 -0.00071664 -0.00078286 
-0.000756133 -0.000707403 -0.00057592 -0.000408353 -0.000207531 -2.53802e-05 5.27455e-05 6.49727e-05 -9.0216e-05 -0.000240522 
-0.000483308 -0.000704468 -0.000773697 -0.00059741 -0.000116585 3.81943e-05 0.000939723 0.00187291 -0.000509522 -0.000490982 
-8.61711e-05 -0.000345044 -0.00142429 -0.000344078 -0.000544427 -0.000941947 -0.000944597 -0.00137933 4.64724e-06 0.000482322 
-0.000177922 -0.000450126 5.21624e-06 0.000449798 -0.00014666 -0.000140148 0.000388517 -0.000330099 -0.00117982 -0.00106667 
0.000376648 0.00230559 0.00381354 0.00228446 -0.00185227 -0.00464871 -0.00429237 -0.00115299 0.00199789 0.00241293 
-5.47698e-05 -0.00260109 -0.00336569 -0.00131049 0.00220488 0.00511935 0.00606933 0.00465543 0.00167945 -0.00154816 
-0.00412539 -0.00523138 -0.00501327 -0.00363827 -0.00170886 0.000298855 0.00198718 0.00307484 0.00351418 0.00331506 
0.0026257 0.00163238 0.00050192 -0.000566687 -0.00148116 -0.00212932 -0.00251383 -0.00260815 -0.00249596 -0.0021754 
-0.00178192 -0.00129398 -0.000847385 -0.000416728 -7.54764e-05 0.000165802 0.000313344 0.000340674 0.000297128 0.000186363 
6.37554e-05 -5.77634e-05 -0.000111005 -0.000137521 -6.60794e-05 8.6959e-06 0.000118968 0.000167033 0.000198328 0.000151406 
6.60673e-05 -4.34813e-05 -0.000182613 -0.000294575 -0.000379426 -0.000392294 -0.000365359 -0.000260461 -0.00014161 5.67191e-05 
0.000262955 0.000374128 0.000159317 -7.75069e-05 4.87257e-05 -0.000551214 -0.00120623 0.000955474 0.00080683 -6.40353e-05 
-0.000289928 -0.000629914 -0.000665718 0.000435401 0.000613743 0.00157134 0.00145998 0.00121769 0.0011029 -0.000156966 
-0.000447995 -3.55246e-05 0.000311381 -0.000165238 -0.00038066 0.000436783 -7.71373e-05 -0.00115958 -0.00107359 0.000169422 
0.00193976 0.00335193 0.00263701 -0.00129085 -0.00409641 -0.00383643 -0.00149361 0.00102976 0.00171163 0.000538253 
-0.000160074 0.000527626 0.00169547 0.00245961 0.00128461 -0.00111127 -0.00365688 -0.00510548 -0.00472254 -0.00282064 
-0.000159749 0.00249458 0.00421494 0.0049752 0.0045279 0.00333608 0.00167029 -9.82726e-05 -0.00156629 -0.00270256 
-0.00320001 -0.00329636 -0.00285819 -0.00218877 -0.00130825 -0.000408126 0.000390737 0.00108802 0.00151419 0.00182782 
0.00187067 0.00185097 0.00166962 0.00149306 0.00126431 0.001108 0.000925079 0.000838826 0.000697009 0.000614111 
0.000467155 0.00034358 0.000174071 3.59572e-05 -0.000129007 -0.000239116 -0.000359389 -0.000438875 -0.000529768 -0.000540874 
-0.000553095 -0.000421682 -0.000286768 -6.35983e-05 8.71531e-05 0.000218255 0.000185414 4.91925e-05 -0.000266821 -0.000650051 
-0.000881742 -0.000795186 -0.000548973 -0.000765878 0.000149132 0.00109844 -0.000831821 -0.000458561 2.7503e-05 -0.000109825 
-0.000506147 -0.000154821 -0.000569852 8.56287e-05 -6.78784e-05 -0.000901258 -0.0019779 -0.00203808 -0.00154817 -0.000960147 
-0.000160994 7.32573e-05 -4.67822e-05 -0.000223837 0.000430365 0.000205712 -0.00111417 -0.00116764 -0.000197679 0.00138473 
0.00288511 0.00300143 -0.000137173 -0.00344419 -0.00334754 -0.00167587 0.000408463 0.00133245 0.000629334 -0.000262307 
-4.33043e-05 -0.000149455 -0.000413505 -0.00107221 -0.00155657 -0.000782575 0.000808145 0.00266964 0.00399255 0.00389854 
0.00278469 0.000700097 -0.00144592 -0.00318524 -0.00422281 -0.00431507 -0.00371908 -0.00253692 -0.00108174 0.000344867 
0.00164816 0.00250545 0.0030525 0.00308928 0.00284484 0.00228354 0.00159152 0.000828355 9.47871e-05 -0.000550402 
-0.00107026 -0.00143152 -0.00167444 -0.0017295 -0.00176182 -0.00160514 -0.00152562 -0.00131311 -0.00122013 -0.00104884 
-0.00100244 -0.00083743 -0.000756144 -0.000510727 -0.000315966 -1.64578e-05 0.000171939 0.000336703 0.000274801 0.000131585 
-0.00021189 -0.000525372 -0.000815059 -0.000941266 -0.000892969 -0.000699378 -0.000320294 0.000102273 0.000586636 0.00074638 
0.000556041 0.000209301 0.000311624 -0.000720442 -0.00176739 0.000365174 0.000238206 -0.000111622 0.000238917 -1.97296e-05 
8.54126e-06 1.18711e-05 -0.000733294 0.00126021 0.000472614 0.000528571 0.00138462 0.00209646 0.00244309 0.00141798 
0.000531413 0.000257831 0.00010186 0.000139438 2.82758e-05 -0.00100519 -0.0012485 -0.000543785 0.000692026 0.00251638 
0.00328792 0.0011902 -0.0025929 -0.00323392 -0.00186803 -0.000368725 0.00091688 0.000673564 -0.000206742 -9.56896e-05 
0.000217768 6.09544e-05 0.000494964 0.000564003 0.00105004 0.00116713 0.000379131 -0.000899735 -0.00242226 -0.00350388 
-0.00338694 -0.00255498 -0.00069228 0.00110449 0.00276401 0.0038127 0.00405143 0.00378689 0.00281187 0.00170945 
0.000330522 -0.000866994 -0.00191299 -0.00265422 -0.00299086 -0.00309192 -0.00275617 -0.00237446 -0.00168567 -0.0011208 
-0.000437769 9.10373e-05 0.000596244 0.00102942 0.00138791 0.00173198 0.00198422 0.00219105 0.00221675 0.00216326 
0.00181454 0.00141307 0.000815854 0.000298793 -0.00018426 -0.0004336 -0.000545644 -0.000461559 -0.000323887 -0.00015948 
-4.80349e-05 -2.17098e-05 9.11484e-06 -4.70626e-05 -3.44982e-05 -0.000195946 -0.000362372 -0.000678679 -0.000736059 -0.000502581 
-0.00026799 -0.000527824 0.000435395 0.00129182 -0.000948013 -0.000875454 -0.000349546 -0.000574351 -0.000344124 7.64783e-05 
-0.0001307 -0.00104972 3.96458e-05 0.00120469 -0.00121106 -0.000686318 -0.0013281 -0.00207267 -0.00243924 -0.00303613 
-0.0014469 -0.000471854 -0.000499948 -0.000311984 -0.000468965 -0.000791546 -0.000711473 4.05299e-05 0.00218364 0.00359566 
0.00217675 -0.00144855 -0.00316024 -0.00185186 -0.000701996 0.000683213 0.000963117 1.09108e-05 -0.000263181 0.000232233 
-9.85768e-05 4.52004e-05 0.00016448 -0.000248666 -0.000357323 -0.000981666 -0.00113798 -0.000483149 0.000453345 0.0019556 
0.00290424 0.00309012 0.00249615 0.000942548 -0.000653731 -0.00230982 -0.00344286 -0.00386966 -0.003864 -0.00305782 
-0.00218379 -0.000839345 0.000316911 0.00150776 0.00244987 0.00306769 0.00348823 0.00341669 0.0032293 0.00259467 
0.00194228 0.00101042 0.000220301 -0.00066106 -0.00121506 -0.00170252 -0.00180045 -0.00175792 -0.00147372 -0.00110928 
-0.00070535 -0.000386796 -0.00010113 9.40113e-05 0.000313496 0.000514161 0.000788842 0.000928705 0.00100701 0.000792639 
0.000475273 -6.72285e-05 -0.000466156 -0.000812773 -0.00073703 -0.000471843 1.32897e-05 0.000272479 0.000161053 0.000143093 
0.000563085 -0.000398413 -0.00126777 0.000887344 0.000555621 -0.000204819 1.20332e-05 -8.38219e-05 -0.000300532 -0.00046016 
-0.000427243 -9.17135e-05 0.00135814 0.00037844 -0.000977828 0.00105966 0.000730346 0.00197211 0.00252042 0.00247648 
0.00313035 0.00117013 0.000525182 0.000644057 -0.0001584 -0.00109132 -0.000883468 0.00154865 0.00359525 0.00244128 
-0.00049575 -0.00258413 -0.00184426 -0.000723721 0.000189994 0.000931012 -5.5961e-05 -0.00063672 -9.81744e-05 1.19593e-05 
-0.00014434 0.000535262 0.000138836 7.36655e-05 9.16695e-05 -7.60047e-06 0.000495454 0.000600232 0.000228775 -0.00017138 
-0.00137748 -0.00191506 -0.0023273 -0.00197171 -0.000944725 0.00015707 0.00160255 0.00251125 0.00316974 0.00327305 
0.00285409 0.00222949 0.00118996 0.000313679 -0.000716 -0.00138196 -0.00198915 -0.00224216 -0.00234016 -0.00225979 
-0.00198509 -0.00177355 -0.0013149 -0.00105425 -0.00050131 -0.000124038 0.000518948 0.000968567 0.00150328 0.00165582 
0.00166766 0.00115783 0.000479225 -0.000467178 -0.00118465 -0.00171636 -0.00162241 -0.00121782 -0.000431297 0.000256452 
0.000813175 0.000971058 0.000897286 0.000553604 0.000135634 -0.000223438 -0.000384843 -0.000162652 -0.000271001 -0.000814294 
0.000231675 0.00114696 -0.000887541 -0.000482534 0.000343458 -0.000135807 -0.000320955 -0.00024814 -7.51939e-05 -0.000131573 
1.01332e-05 0.00037917 0.00033983 -0.000989212 -0.000540412 0.000494292 -0.0010982 -0.000992983 -0.00280094 -0.00318794 
-0.00270481 -0.00293883 -0.000770362 -0.0010233 -0.00211445 -0.00166352 0.000963314 0.00344571 0.00245718 0.000340542 
-0.000971341 -0.00136818 -0.000783545 -0.000193878 0.000733564 0.000157111 -0.000678796 -5.89781e-05 0.000403231 0.000144442 
0.000541978 0.000426751 -0.000368404 -9.30664e-05 -0.000378691 -0.00033266 -0.000172586 -0.000508998 -0.000170831 0.000132379 
0.000487505 0.00133544 0.00139736 0.00158544 0.00107417 0.000236525 -0.000487531 -0.00164326 -0.00206856 -0.00270522 
-0.00261684 -0.0023929 -0.00183497 -0.00089589 -8.57034e-05 0.00113069 0.00186767 0.00280157 0.00310993 0.00329242 
0.00291237 0.0022042 0.00117336 -6.76213e-05 -0.0012108 -0.00221087 -0.00262691 -0.0026308 -0.00195178 -0.00104836 
6.6538e-05 0.000861399 0.00130169 0.00114243 0.000701828 5.96435e-05 -0.000347662 -0.000449292 -0.000263416 5.213e-05 
0.000156889 9.79254e-05 -0.000165717 -0.000224423 -0.000187479 5.96279e-05 6.18054e-05 0.00043651 0.00105353 -0.000289103 
-0.00130948 0.000711609 0.000405869 -0.000339816 0.000216555 0.000520553 0.000304524 -3.74909e-05 -0.000241672 -0.00015388 
5.30264e-05 -0.000258403 6.90428e-06 -3.21124e-05 0.000686644 0.000503795 -4.83155e-05 0.00109141 0.00120695 0.00333577 
0.00379455 0.003029 0.00242852 -0.000452532 -0.00032043 0.00134477 0.00290389 0.00221011 0.000841762 0.00079553 
-0.000574264 -0.00164001 -0.00080036 0.000413432 0.000259186 -0.000769974 -0.000134503 0.000430315 8.85068e-05 3.68105e-05 
0.000202459 -0.000572311 -0.000303218 5.18332e-05 -0.000281076 0.000112003 0.000117964 0.000228033 0.000757219 0.000228059 
0.000104011 -0.00061224 -0.00139823 -0.00147969 -0.0016497 -0.000929168 -0.000201097 0.000532943 0.00136786 0.00144915 
0.00173369 0.00126849 0.000981703 0.000431994 -6.68992e-05 -0.000335052 -0.0006646 -0.000508101 -0.000525567 -9.40307e-05 
-1.65209e-05 0.000275229 8.37114e-05 -7.96398e-05 -0.000556509 -0.000920087 -0.00117871 -0.0010033 -0.000495271 0.000402471 
0.00126235 0.00191239 0.00189156 0.00127618 8.12763e-05 -0.00109831 -0.00200293 -0.00199428 -0.00141771 -0.000184521 
0.000737072 0.00126341 0.000883194 0.000260773 -0.000311798 -0.000203498 -0.000148141 -0.000395778 0.0012421 0.00192827 
-0.000592775 -0.000611996 0.000134114 -0.000221789 -0.000452984 -0.000166889 0.000170256 0.0003463 0.000179187 -0.000169814 
-0.000252744 -2.22194e-05 0.00100985 0.000169597 -0.000256379 -0.000483816 -0.000372198 -0.000372929 -0.00126296 -0.00159729 
-0.00356142 -0.00410608 -0.003539 -0.00303351 -0.000639791 -8.35994e-05 0.000567392 0.00106584 0.0019311 0.000355681 
-0.00259584 -0.00145343 0.00079817 0.000544133 -0.000659635 3.04203e-06 0.000711066 -4.40256e-05 -0.000119065 0.000213793 
-0.000102645 -0.000133619 0.000493066 -0.000108419 -9.90123e-05 0.000261787 4.2034e-05 0.000345432 6.40437e-05 -0.000491879 
-0.000191798 -0.000500788 0.000230245 0.000819488 0.00101105 0.00137677 0.000540998 -2.48546e-05 -0.00121934 -0.00216605 
-0.0027349 -0.00325817 -0.00289945 -0.00267263 -0.00165317 -0.000750573 0.000573465 0.00189317 0.00311011 0.00427243 
0.00475288 0.00488161 0.0039749 0.00260028 0.000448275 -0.00162145 -0.00360287 -0.00452224 -0.00452092 -0.00311258 
-0.00108604 0.00135261 0.00302178 0.00373651 0.00298088 0.00148929 -0.000430391 -0.00156331 -0.00194066 -0.00118906 
-0.000159859 0.000789442 0.000919907 0.000269931 -0.000777816 -0.00105528 -0.000158045 -0.00101893 -0.000885365 0.00189425 
0.00153827 0.00017432 5.63521e-05 0.000295657 0.000146346 -2.43719e-05 -0.000137261 3.57628e-05 0.000303555 0.000113518 
-0.000191739 0.000899366 0.000797144 -0.00121331 -0.000463093 0.000566572 0.000476553 0.000211708 0.000601944 0.00159019 
0.00243042 0.00375615 0.00349507 0.00185001 0.00105606 0.00102302 0.003297 0.00350527 0.00116151 -0.0024543 
-0.00158256 0.00179755 0.000972195 -0.000936273 -4.13661e-05 0.000912291 -0.000474035 -0.000549459 0.00042789 7.28658e-05 
-0.000181893 0.00029377 -0.00013784 -0.000500993 0.000186432 4.88991e-06 -6.72952e-05 0.000130961 -0.000462669 -7.90741e-05 
4.70463e-05 -3.64162e-05 0.000433871 -0.000123289 -0.000314847 -0.000597622 -0.00115576 -0.000819384 -0.00109211 -0.000581899 
-0.000632308 -0.000691732 -0.000889064 -0.00161048 -0.00187495 -0.00248057 -0.00220059 -0.00178278 -0.000497909 0.00099197 
0.0027669 0.00419014 0.00493315 0.00468878 0.00328089 0.001073 -0.00157547 -0.00375728 -0.0049727 -0.0045694 
-0.00281031 -8.98018e-05 0.0024686 0.00397108 0.00373474 0.00202778 -0.000428106 -0.00233982 -0.00291121 -0.00198842 
-0.000191929 0.00146299 0.00238233 0.00211396 0.000657965 -0.00135541 -0.000249323 0.000488648 -0.00128402 -0.000292565 
0.00112995 0.0008822 0.000113731 -6.37772e-05 2.50882e-05 0.000109384 -3.7945e-06 -0.000110995 0.000118915 0.000374855 
0.000198147 0.00101335 -0.000571711 -0.00131975 0.0012519 0.000974194 -0.000587901 -0.000586641 -3.48794e-05 -0.000412383 
-0.00157284 -0.00363207 -0.00536021 -0.00529888 -0.00213567 0.00127166 0.00233914 -0.000570861 -0.00233599 -0.00107605 
0.00183944 0.000428378 -0.00227332 -0.000531849 0.00115103 -0.000729677 -0.00112384 0.000924975 0.000374547 -0.000556557 
0.000269185 5.07105e-05 -0.00056569 0.000171358 0.000179642 -0.000184139 0.000268502 2.66985e-05 -5.02747e-05 0.000493252 
-3.26063e-05 0.000261225 0.000254792 1.50392e-05 0.000565151 0.000264248 0.000364783 0.000103432 -0.000651865 -0.00116753 
-0.00250612 -0.00339643 -0.00473929 -0.0056631 -0.00627321 -0.00641714 -0.00552414 -0.00407655 -0.00139138 0.00154043 
0.00499455 0.00776539 0.00967884 0.00969533 0.00798858 0.00426934 -0.000365308 -0.00515128 -0.00847841 -0.00963004 
-0.00783472 -0.0039487 0.00108511 0.00511834 0.00699221 0.00575163 0.00244541 -0.0015902 -0.00411117 -0.00437528 
-0.0024194 -2.27662e-05 0.00167299 0.00221244 0.00192573 -0.00140348 -0.0027007 -7.52159e-05 0.000347772 -0.000165227 
0.000316381 0.000809067 0.000691568 0.000394963 0.000299308 0.000302487 0.000159463 -0.000140362 -0.000201106 0.000333605 
0.000421115 0.000328046 -0.00110038 0.000225244 0.00177904 -0.000829969 -0.001364 0.000418609 0.000847671 0.000286486 
0.000187113 0.000562183 0.00251098 0.00391336 0.00511054 0.00342237 0.000882639 -0.000116769 0.00155537 0.00146482 
-0.000951996 -0.00269726 0.000397021 0.00271376 -0.000169484 -0.00143976 0.00143697 0.00113632 -0.00105769 0.000240015 
0.00069221 -0.000736201 8.65809e-05 0.000532311 -0.000168357 0.000356351 0.000366648 -0.000186712 0.000329767 -1.00243e-05 
-0.000132483 0.000553071 0.000426732 0.000848274 0.000993156 0.000548994 0.000872274 0.000388693 0.000436122 3.10254e-05 
-0.000857291 -0.00195683 -0.00410131 -0.00617532 -0.00877208 -0.0106948 -0.0118582 -0.0115345 -0.00944799 -0.00559201 
-0.00033955 0.0054559 0.0108508 0.0143066 0.0152191 0.0127317 0.0075515 0.000464397 -0.00622365 -0.0110296 
-0.0119858 -0.00922819 -0.00333126 0.00300619 0.00777158 0.00863313 0.00591476 0.000726654 -0.0039036 -0.00594809 
-0.00429325 -0.000597543 0.00244081 0.00300437 0.00406445 0.00210623 -0.00231391 -0.0025454 -0.000341503 0.000573267 
0.000534419 0.000166421 -9.80399e-06 -6.79832e-05 0.000158429 0.000479457 0.000605802 0.000271644 -0.000300548 -1.61195e-05 
0.000388559 -0.000202124 -0.000458598 0.00105671 0.000303953 -0.00180758 0.000306883 0.00158153 0.000112551 -0.000826224 
-0.00100155 -0.00159707 -0.00237368 -0.00421803 -0.00347947 -0.00268071 -0.000126242 0.00107384 -0.000230883 -0.00298486 
-0.00159344 0.00251695 0.00331882 -0.0013142 -0.00301164 0.00103179 0.00149126 -0.00194817 -0.000694706 0.00117564 
-0.00100552 -0.000674493 0.000978721 -0.000457144 -0.000252011 0.000329206 -0.000570393 -0.000133486 0.000233877 -0.000174654 
0.00100173 0.00111223 0.00114899 0.00166742 0.00158654 0.0023067 0.00295125 0.00321667 0.00351557 0.00250872 
0.00104531 -0.00166492 -0.00505857 -0.0090156 -0.0131805 -0.0167604 -0.0194479 -0.0200009 -0.0184626 -0.0138267 
-0.00700536 0.00170953 0.010482 0.017867 0.0217605 0.0212732 0.0159396 0.00692 -0.00362679 -0.0126655 
-0.0174995 -0.0165074 -0.0100154 -0.000646066 0.00814762 0.0126045 0.0114352 0.0054197 -0.00205813 -0.00756801 
-0.00840864 -0.00453441 0.00125154 0.0023549 0.00245051 0.0027245 -8.90824e-05 -0.00292996 -0.00202987 0.000161915 
0.00159008 0.00123074 0.000317389 -0.000383957 -0.000389614 2.65332e-05 0.000567452 0.00075636 0.000136915 -0.000284825 
0.000336562 -0.000171272 0.000149048 0.000473235 -0.000752007 -0.000574311 0.00156092 0.000200516 -0.00140435 -0.000675344 
-0.000178239 -0.000542294 -0.000298916 0.0011937 0.00495638 0.0051359 0.00389431 -5.88954e-05 -0.00163399 0.000175279 
0.00343306 0.000939528 -0.00415118 -0.00358342 0.00224042 0.00274058 -0.00218632 -0.00112755 0.00243458 7.47437e-05 
-0.00116077 0.00167647 0.000222027 -0.00091971 0.00105406 7.24525e-05 -0.000120544 0.0011087 0.000456278 0.00115554 
0.00176201 0.00111838 0.00228399 0.00305607 0.00420384 0.00601099 0.00694663 0.00835768 0.00878636 0.00861021 
0.00764591 0.00500393 0.0012468 -0.00463081 -0.0115285 -0.019437 -0.0267842 -0.0323282 -0.0345422 -0.0321784 
-0.0249353 -0.0131766 0.00105811 0.0156074 0.0268936 0.0326844 0.0308538 0.022046 0.00779668 -0.00746084 
-0.0196952 -0.0246606 -0.0209769 -0.0102491 0.00317184 0.0134482 0.0166135 0.0118884 0.00278182 -0.00586806 
-0.0100753 -0.0083576 0.000357393 0.00589783 0.00508489 0.00275015 0.000537284 -0.00245072 -0.00306216 -0.00146627 
0.000980433 0.00177619 0.00103383 -0.000161265 -0.000620959 -0.000447087 6.21927e-05 0.000682182 0.000738259 -0.000209858 
0.000315456 -2.47638e-05 -6.43497e-06 -0.000209819 -0.000242722 0.000567724 0.000532403 -0.00117908 -0.00039975 0.000826739 
-0.000265779 -0.00166801 -0.00148278 -0.000428304 5.06612e-05 -0.00269199 -0.00309509 -0.00263739 0.000445803 0.000925032 
-0.00111348 -0.00382499 0.000291107 0.00564002 0.00322198 -0.00330607 -0.001799 0.00357741 0.000516199 -0.00264491 
0.000784112 0.000923638 -0.00208606 0.000685986 0.000780397 -0.00111668 0.000842975 0.000688302 6.25134e-06 0.0016391 
0.00108143 0.00256422 0.0046882 0.00573242 0.00848797 0.0107028 0.0135201 0.0166709 0.0189538 0.0211778 
0.0212141 0.0194213 0.0144662 0.00645916 -0.00448875 -0.0177055 -0.0311575 -0.0435432 -0.0515102 -0.0539575 
-0.0485698 -0.0361119 -0.0174028 0.003905 0.024184 0.038744 0.0442778 0.0392735 0.0246582 0.00451731 
-0.0154721 -0.0290316 -0.031559 -0.0226552 -0.00593027 0.0110772 0.0209734 0.0195964 0.00900255 -0.00367623 
-0.0118156 -0.0147961 -0.00772079 0.00353861 0.00865707 0.00577985 0.00130554 -0.00263704 -0.00366624 -0.00232807 
0.000363932 0.00200607 0.00173399 0.000312162 -0.00056991 -0.000583707 -0.000346207 1.38463e-05 0.000923359 0.000107699 
0.000298136 -0.000130712 -0.000383573 -2.29563e-06 0.000579009 2.54622e-05 -0.000681422 -0.000277816 0.000976836 -0.000102713 
-0.00210681 -0.00186683 0.000115493 0.00140857 0.00157277 0.000974348 0.00245519 0.00188406 0.000872879 -0.00135856 
-6.15621e-05 0.00253528 0.00410649 -0.00196623 -0.00689379 -0.00234806 0.00433701 0.00029515 -0.0046949 0.000418086 
0.0024377 -0.00193757 -0.000365678 0.00226205 -0.00134754 0.000179537 0.00169575 -0.000402042 0.00144758 0.00256081 
0.00264745 0.00594441 0.00682426 0.00978187 0.0143231 0.018307 0.0247724 0.0303747 0.0367548 0.0420825 
0.0450607 0.0458653 0.0413646 0.0327336 0.0176318 -0.00169529 -0.0244705 -0.0473047 -0.0665576 -0.0787652 
-0.0802052 -0.0704552 -0.0491382 -0.0207578 0.0106527 0.0377772 0.0555216 0.0591982 0.0482928 0.0254728 
-0.00247515 -0.027188 -0.0404438 -0.0379447 -0.0214102 0.00201318 0.021329 0.0282941 0.0196349 0.00268075 
-0.00949481 -0.0154468 -0.0126414 -0.00205285 0.00882176 0.0101584 0.00474645 -0.0020124 -0.0050114 -0.00385262 
-0.000589223 0.00196677 0.00226927 0.000745633 -0.000613579 -0.000594575 -0.000100359 -0.000528782 0.000435097 0.000313776 
0.000148295 -0.000421312 -0.000358907 0.000711212 0.000400449 -0.00105998 -0.000119972 0.00117205 0.000177949 -0.00166806 
-0.00150879 0.000173243 0.000724847 -0.000294652 -0.000644568 -0.000545301 4.43777e-05 -0.00102226 -0.000565995 0.000691036 
0.00196781 -0.00101159 -0.00422191 -0.00419266 0.0037522 0.00759326 0.000986825 -0.00502715 0.00169786 0.00521914 
-0.00156417 -0.0016231 0.00336239 -0.000229824 -0.00141598 0.00269076 0.000145375 0.000606387 0.00383438 0.00259269 
0.00528044 0.00809883 0.010191 0.0170464 0.0226147 0.0307933 0.0410339 0.0512534 0.0638518 0.0744926 
0.0843963 0.0896265 0.0886872 0.0802761 0.0620467 0.0361735 0.00222664 -0.033681 -0.0689894 -0.0960564 
-0.111173 -0.10996 -0.092209 -0.0602517 -0.0198391 0.0212513 0.054516 0.0729795 0.0721443 0.0529263 
0.020283 -0.0149833 -0.0422551 -0.050912 -0.0397759 -0.0132001 0.0150235 0.0333191 0.032215 0.0116979 
-0.0091078 -0.0196404 -0.0173919 -0.00746848 0.00575915 0.0119565 0.00851891 0.000359629 -0.00542051 -0.00546239 
-0.00173402 0.0019319 0.00298934 0.00145567 -0.000755964 -0.00128454 0.000187536 -0.000215802 -0.000134605 0.000164012 
-4.63949e-05 -0.000529464 0.00011386 0.000982812 -0.000611015 -0.00108154 0.00141866 0.000890197 -0.00154134 -0.00118173 
0.000147449 3.49105e-05 -0.00112139 -0.0007698 0.00142432 0.00173557 0.000801298 -0.00096042 -0.00130839 -0.00159189 
-0.00247326 -0.00217113 0.00231245 0.00590091 0.00376185 -0.00556622 -0.00751538 0.00101289 0.00535548 -0.00376257 
-0.00487032 0.00287771 0.00045086 -0.00400453 0.00190068 0.00130379 -0.00158023 0.00314556 0.0025872 0.00276788 
0.00833937 0.00978119 0.0162834 0.0245415 0.0324359 0.0468837 0.0612064 0.0801186 0.100585 0.120565 
0.140389 0.153242 0.160682 0.155359 0.13798 0.106287 0.061527 0.00896954 -0.0472198 -0.096527 
-0.133558 -0.149115 -0.142694 -0.112939 -0.0675802 -0.0134914 0.0367321 0.0746512 0.0904755 0.0827136 
0.0518343 0.00916786 -0.0334176 -0.0587886 -0.0592525 -0.0346873 0.00106102 0.0310819 0.0447052 0.0297333 
0.00100215 -0.0219481 -0.0246722 -0.0130052 0.00341401 0.0138067 0.0122696 0.00299193 -0.00558177 -0.00752529 
-0.0035316 0.00158321 0.00372561 0.00256842 -0.00016456 -0.00221709 -0.000475763 0.000414572 -0.000121659 -0.000103441 
-0.000154961 -0.000356839 0.000597619 0.000570785 -0.0012699 0.000130105 0.00200855 -0.000822081 -0.00165087 0.000748284 
0.000123961 -0.00149288 -0.00110002 0.00130818 0.00187642 -0.00105896 -0.00207058 -0.00110024 0.00158849 0.00382911 
0.00436561 0.00452955 0.00199654 -0.00383895 -0.00735981 -0.0026284 0.00732466 0.00656681 -0.00362882 -0.00520405 
0.00559428 0.00380111 -0.00377949 0.0017006 0.0047458 -0.00193328 0.00224285 0.00506773 0.00199858 0.0080354 
0.0113331 0.0143626 0.0252348 0.0332031 0.0479566 0.0677091 0.0888961 0.118565 0.147848 0.181767 
0.213961 0.240906 0.260579 0.263158 0.250527 0.214486 0.160324 0.0885739 0.00930582 -0.0683743 
-0.133004 -0.174006 -0.186369 -0.167665 -0.124029 -0.0633578 0.00101533 0.0575681 0.0941772 0.10436 
0.0852106 0.0429596 -0.0096405 -0.0542178 -0.0725935 -0.0582568 -0.0183877 0.0203756 0.0470411 0.0442823 
0.0169901 -0.0169494 -0.0326479 -0.0236562 -0.00262877 0.0146704 0.0174958 0.00747156 -0.0046238 -0.00963254 
-0.006168 0.000651906 0.00437662 0.00356477 0.000987673 -0.00238086 -0.00182941 0.000425459 0.000364252 -0.000174501 
-0.000226634 -4.7064e-05 0.00067653 -0.000106934 -0.00106601 0.00132543 0.00110118 -0.00183004 0.000101632 0.00138434 
-0.00175844 -0.00171054 0.00071715 0.00184028 -0.000458642 -0.0019571 0.00104206 0.00236129 0.00116033 -0.00235066 
-0.00639845 -0.00739603 -0.0066029 -0.00154306 0.00529323 0.00810996 0.00069838 -0.00873403 -0.00452543 0.00675125 
0.00456841 -0.00661623 -0.00144841 0.00522243 -0.00253421 -0.001957 0.00574361 0.00093336 0.00359315 0.0110613 
0.010585 0.0205024 0.0311991 0.0424324 0.0656165 0.0884147 0.120988 0.160674 0.203811 0.255673 
0.303501 0.350886 0.385676 0.403549 0.399074 0.36412 0.303077 0.213327 0.109577 -0.00119453 
-0.0989626 -0.174148 -0.212869 -0.214807 -0.179962 -0.120902 -0.0473459 0.0232252 0.0808561 0.111441 
0.111748 0.0784151 0.0244605 -0.0358921 -0.0761643 -0.0814881 -0.0436295 0.00669484 0.0463821 0.0555236 
0.0331779 -0.00489605 -0.0333964 -0.0336113 -0.0117159 0.0119899 0.0215963 0.0132788 -0.00205872 -0.0109674 
-0.00922499 -0.00122486 0.00485694 0.00443137 0.00192884 -0.00163786 -0.00285134 -0.000397926 0.00072668 3.28367e-05 
-0.000219053 0.000205272 0.000463171 -0.000429782 -0.000272196 0.00159799 -0.000239093 -0.00124355 0.00155644 -7.62748e-05 
-0.00271492 0.000279737 0.00160954 5.41475e-05 -0.00169082 0.000268265 0.00226156 -0.00098157 -0.00287834 -0.00123079 
0.0033031 0.00888832 0.0102422 0.00825052 0.000881825 -0.00625028 -0.00754692 0.00207323 0.00958849 0.00152633 
-0.00959335 -0.0028769 0.00738181 -0.000758378 -0.00447567 0.00602445 0.00332315 -0.000235307 0.0100807 0.0102898 
0.0139054 0.0285771 0.0363561 0.0563277 0.0825568 0.111031 0.156928 0.205263 0.26658 0.334276 
0.402201 0.472315 0.526196 0.565527 0.572602 0.546383 0.48075 0.378397 0.250395 0.107927 
-0.0260628 -0.138501 -0.209521 -0.238527 -0.221078 -0.172801 -0.100582 -0.0250622 0.0466313 0.0968193 
0.120732 0.106981 0.0621971 -0.00281415 -0.0622584 -0.0943847 -0.0753394 -0.0189435 0.0389437 0.0654807 
0.0495371 0.00749513 -0.0312578 -0.0423342 -0.0219137 0.00756787 0.0241527 0.0193979 0.00167255 -0.0115938 
-0.0120113 -0.0036064 0.0051319 0.00561549 0.002184 -0.00102228 -0.00298987 -0.00131085 0.000620516 0.000311527 
-0.00021055 0.000274787 0.000183193 -0.000322194 0.000336477 0.00102516 -0.000743594 0.000208066 0.00143721 -0.00173406 
-0.00148205 0.00182668 3.48362e-05 -0.00133618 -0.000147022 0.00201979 0.0002072 -0.0025722 0.000431482 0.00318601 
0.00130801 -0.00421747 -0.0109293 -0.0124282 -0.00921622 -0.000274314 0.00628103 0.00537052 -0.00541283 -0.00963383 
0.00229103 0.0118513 0.00114079 -0.00595577 0.00566093 0.00654297 -0.00246704 0.00672907 0.0118512 0.0084812 
0.0224998 0.0320659 0.043165 0.0711032 0.0963509 0.137025 0.190485 0.249447 0.329031 0.410923 
0.503994 0.59451 0.672941 0.734397 0.757247 0.743712 0.676593 0.567173 0.415844 0.245584 
0.0738895 -0.0736236 -0.179536 -0.233999 -0.237364 -0.201245 -0.139363 -0.067692 0.00341679 0.0645388 
0.106204 0.118354 0.091275 0.0337112 -0.0342327 -0.0869524 -0.0961798 -0.0523544 0.0177608 0.0677618 
0.0690518 0.0260365 -0.0242546 -0.0491043 -0.0343708 0.000853041 0.0256001 0.0257221 0.00678416 -0.011744 
-0.0150867 -0.00650511 0.00496857 0.00776605 0.00277392 -0.00135674 -0.00311873 -0.00177269 0.000392874 0.000484185 
-0.000265676 0.000221776 7.35759e-05 -5.36748e-06 0.000412485 0.000345114 -0.000273141 0.00100204 9.04071e-05 -0.00192012 
0.000484522 0.00120313 -0.00170301 -0.000141664 0.00163948 0.000596069 -0.0022901 -0.00100106 0.00255976 0.000664455 
-0.00280728 -0.00122297 0.00473952 0.011991 0.0134689 0.00941812 4.95024e-05 -0.00503863 -0.0015055 0.00920823 
0.00928099 -0.00569318 -0.0118049 0.00237865 0.00600649 -0.00608367 1.79223e-07 0.0104487 0.00374831 0.0111219 
0.025825 0.0289222 0.0514014 0.0771953 0.105662 0.157838 0.212289 0.286788 0.377672 0.475121 