# vtk DataFile Version 2.0
Titre
ASCII
DATASET STRUCTURED_POINTS
DIMENSIONS 100 100 1
ORIGIN 0.0 0.0 0.0
SPACING 0.1 0.1 0.0
POINT_DATA 10000 
SCALARS rho float
LOOKUP_TABLE default
-0.00135402 0.00102556 1.38193e-05 0.00300207 0.00373713 0.00125293 -0.000175616 -0.00127986 -0.00248509 -0.000305119 
0.00156782 0.000990979 -0.00055294 -0.000691351 0.000937133 0.000346121 -0.000857187 -0.00120013 0.000164995 0.000674658 
0.000639161 0.0003479 -0.000172539 -0.000677121 -0.000485707 -0.000238795 -0.0005231 -0.000567918 -0.000486123 -0.000454992 
-0.000215881 0.000176395 0.000254211 0.000268756 0.000118528 -0.00014549 -0.000152218 -7.38339e-05 8.36549e-05 0.00018263 
0.000102121 -0.000148017 -0.000390506 -0.00065299 -0.000698298 -0.000647401 -0.000451615 -0.000168664 0.000108123 0.000436659 
0.000697951 0.000959656 0.00114321 0.00124192 0.00124296 0.00108523 0.000805942 0.000358325 -0.000206915 -0.000881313 
-0.00161411 -0.00235468 -0.00305006 -0.00364261 -0.00410128 -0.00438843 -0.00452431 -0.00450696 -0.00439179 -0.00418263 
-0.00393248 -0.00364451 -0.00334673 -0.00302225 -0.00265076 -0.00225899 -0.00179366 -0.00131042 -0.000838787 -0.000432076 
-0.000161767 -6.77473e-05 -0.000175905 -0.000416653 -0.00070852 -0.000925654 -0.000955871 -0.000776877 -0.000530502 -0.000240377 
-0.000171762 5.73985e-05 0.000133995 0.000304587 -5.68057e-05 0.000384906 0.000687655 -0.000215905 -9.67296e-05 -0.00167553 
-0.00154585 0.00275089 1.29683e-05 0.0015575 -0.00230967 -0.0056689 -0.00364047 -0.00166533 0.00251875 0.00375127 
-0.000107315 -0.00179561 -0.00134106 0.00180949 0.000634878 -0.00133633 -0.00122898 0.000556778 0.00059896 -0.000372525 
6.10487e-05 -0.000175569 -0.000869471 -0.000760056 0.000235855 -0.00021684 -0.000205867 0.000108991 8.51359e-05 -0.000161836 
0.000254038 1.1615e-05 3.02441e-05 0.000123568 7.09601e-05 5.49712e-06 0.000121202 -0.000139602 -0.000144382 -0.000291254 
-0.000396248 -0.00030799 -0.000253505 -1.70082e-05 0.000229152 0.00047542 0.0007047 0.000825308 0.000835147 0.000727299 
0.000464095 0.000119245 -0.000332573 -0.000808613 -0.00130079 -0.00175019 -0.00213818 -0.00243864 -0.00262771 -0.00273055 
-0.00270216 -0.00261228 -0.00241069 -0.00216382 -0.00185033 -0.00150269 -0.00112359 -0.000719551 -0.000325606 6.65603e-05 
0.000407049 0.000718518 0.000924703 0.00104827 0.00107245 0.00100155 0.000839867 0.000660996 0.000477134 0.000331517 
0.000250597 0.000229066 0.000216216 0.000151845 1.53003e-05 -0.000242308 -0.000505333 -0.000642931 -0.000543917 -0.000290138 
-0.000101556 -0.000138899 0.000112371 0.000582198 0.000508133 -0.000706608 0.00131283 0.000997264 0.00118647 0.00222409 
-8.74897e-05 0.00358795 0.000389354 0.00350624 -0.00118907 0.00131705 0.00292151 0.00222177 0.00244063 -0.0028981 
-0.00288763 -0.000417941 0.00250252 0.00109394 -0.00249664 -0.00127535 0.000846424 0.00102123 -0.0011072 -7.87233e-05 
0.000387917 -0.000451873 -0.000597679 0.000814948 0.000165103 -0.000665111 -1.95745e-05 -4.30799e-06 -0.000524241 -3.53281e-05 
7.58488e-05 -0.00025234 0.00014692 0.000100909 -0.000114759 0.000104595 -0.000125591 -0.000163252 -4.621e-05 -9.53434e-05 
4.68276e-05 0.000227698 0.000191925 0.000379789 0.000232336 0.000157521 -2.10983e-05 -0.000328038 -0.000491714 -0.00078329 
-0.000861073 -0.000913697 -0.000828356 -0.000582704 -0.000309497 0.000135468 0.000544143 0.00102494 0.00145571 0.0018357 
0.00215829 0.00235665 0.00248507 0.00247157 0.00239164 0.00217792 0.00191319 0.00156205 0.00119275 0.000796426 
0.000405936 7.30994e-05 -0.000202732 -0.000400561 -0.000493728 -0.000488534 -0.000412194 -0.000284068 -0.000160103 -6.75022e-05 
-0.000101693 -0.00021013 -0.000420139 -0.000640749 -0.000800614 -0.000867305 -0.000871634 -0.000838303 -0.000671706 -0.000187867 
0.000449468 0.000740847 0.000446132 0.00100713 0.00242735 0.000566768 0.000207789 0.000612155 -0.00112959 0.000987732 
0.00142114 0.0020873 -0.000103421 -0.000337501 -0.00576201 -0.00223193 -0.00492363 -0.00149473 -0.00128101 -0.000376119 
0.00258341 0.00198656 0.000248725 -0.00303276 -0.000892143 0.00166573 0.000993501 -0.00134667 -0.000420039 0.00137208 
-0.000204357 -0.000720079 0.000500304 0.00041335 -0.00132419 -8.80822e-06 0.000538674 -0.000198032 -5.94307e-05 0.000652405 
-0.000233347 0.00012467 0.000272927 -0.000161415 -4.1334e-05 9.18144e-05 -0.000306977 8.60931e-05 -4.17992e-05 -5.61519e-05 
0.000137524 -7.72004e-05 -2.08837e-05 -9.12906e-05 -0.000227782 -0.000162686 -0.00021856 -0.000119183 4.79379e-05 0.000166332 
0.000443973 0.000570152 0.000761989 0.00082541 0.000814569 0.000741238 0.000526066 0.000311998 -2.7054e-05 -0.000310833 
-0.000651956 -0.000911003 -0.00114313 -0.00129883 -0.00135299 -0.00135137 -0.00122945 -0.00108437 -0.00084132 -0.000593725 
-0.000335138 -0.000111884 8.32532e-05 0.000173699 0.000205252 0.000150348 5.85307e-05 -4.14313e-05 -8.40204e-05 -3.31046e-05 
0.000106302 0.000273418 0.000398625 0.000354782 0.000202508 -8.76459e-06 -0.00012483 -0.000209165 -0.000420784 -0.00056284 
-0.000157049 0.000742028 0.000661264 -0.000632202 0.00178942 0.00202061 0.00169944 0.00304066 0.000908066 0.00161295 
0.000274165 0.00196158 0.000540535 -0.000764352 -0.000367304 0.00255538 0.00346054 0.0060026 0.00213492 0.000460527 
-0.00200638 -0.00227357 -0.00140037 0.000526771 0.00207241 -2.88066e-05 -0.00153968 -0.000352306 0.00200965 3.52674e-05 
-0.00114984 0.000313471 0.000846741 -0.00105131 -0.000107143 0.00125584 -0.00026081 -0.000677128 0.000456149 -0.000199184 
-0.000488701 0.000429268 -0.000140502 -0.000219384 0.000324117 -0.000181693 1.79005e-05 0.000238104 -0.000108417 0.000132036 
9.21236e-05 -0.000125101 0.000177343 -6.93036e-05 9.74802e-05 0.000147016 5.26113e-05 0.000233836 5.43575e-05 9.33466e-05 
-3.71642e-05 -0.000203416 -0.00027167 -0.000509071 -0.000535373 -0.000673805 -0.000657654 -0.000615247 -0.000544884 -0.000354318 
-0.000229794 1.37147e-05 0.000160301 0.000355158 0.000462442 0.000555404 0.000585289 0.000559544 0.000492657 0.000401412 
0.000293594 0.000182716 0.000134224 0.000100561 0.000140525 0.000194717 0.000274587 0.000289075 0.000234446 9.80487e-05 
-9.09917e-05 -0.000280217 -0.000384206 -0.00049857 -0.000622358 -0.000812969 -0.000847432 -0.000487983 4.59008e-05 0.000103398 
-0.000164493 0.000609351 0.00257724 0.000469837 0.000737775 0.00162388 -0.000166311 0.00239753 0.000655786 0.000787117 
0.00248984 0.00312685 -0.00185603 -0.00117122 -0.00342509 -0.00152143 -0.00260007 -0.00333827 -0.00508063 -0.00271109 
0.000896721 0.00355711 0.00264184 0.000231191 -0.00189308 -0.00129011 0.000897532 0.00207748 -1.27707e-05 -0.0015328 
0.000460048 0.00107448 -0.000632871 -0.000677784 0.00132076 -0.000365499 -0.00116243 0.000499029 0.000638225 -0.000627131 
0.000562852 0.000259421 -0.000465567 0.000230962 6.09802e-05 -0.000412287 0.000313649 -0.00017465 -0.000151668 0.000166707 
-0.000251991 4.27115e-05 2.53466e-05 -0.000151551 9.94815e-05 -0.000136198 -7.41664e-05 -4.93701e-05 -0.000212832 -2.40607e-05 
-0.000164319 -8.80148e-06 3.19722e-05 8.39457e-05 0.000257398 0.000239154 0.000399697 0.000354821 0.000397785 0.000328471 
0.000249262 0.000153664 6.92123e-06 -7.91412e-05 -0.000230307 -0.000274538 -0.000345009 -0.000321982 -0.000317813 -0.000220462 
-0.000166456 -9.45505e-05 -6.55498e-05 -6.60793e-05 -0.000107152 -0.000159771 -0.000177814 -0.000127026 -2.83848e-05 0.000124669 
0.00027005 0.000339869 0.00041244 0.00047517 0.000504538 0.000304871 -0.000294955 -0.000812646 -0.000506942 0.000328663 
0.000108184 -0.0013214 0.00144205 0.00144588 0.000598229 0.00323971 0.000513524 0.00246449 0.00251271 0.00205073 
0.0019484 -0.00200444 -0.0017352 -0.00175367 -0.000746567 0.00365251 0.00268134 0.00481931 0.00304883 0.00440677 
0.00225098 -0.00163198 -0.00418046 -0.00325662 0.000885595 0.00271553 0.00125574 -0.00108247 -0.00139457 0.000981206 
0.00116157 -0.000620556 -0.000807203 0.0011011 0.000143807 -0.00124142 0.000692103 0.00106442 -0.000819386 -0.000265939 
0.000577703 -0.000680469 1.66461e-06 0.000506917 -0.000391839 0.000237949 0.000288386 -0.000311739 0.00028039 1.48998e-05 
-0.000177325 0.000293203 -0.000201271 6.38749e-05 6.00695e-05 -0.00014679 0.000177822 -5.64933e-05 0.000115536 0.000137111 
3.97821e-05 0.000208296 1.76809e-05 0.000118332 -2.24207e-06 -4.01194e-05 -5.32752e-05 -0.000158999 -8.20203e-05 -0.00016725 
-4.25063e-05 -4.18822e-05 7.52577e-05 0.000154386 0.000241487 0.000298809 0.000335809 0.000355396 0.000280996 0.000259532 
0.000169337 0.000135136 8.58083e-05 0.000107622 0.000119111 0.000154778 0.000135592 0.000145647 9.95357e-05 0.000101508 
9.09435e-05 2.51308e-05 -0.000152851 -0.0003346 -0.000318326 0.000102342 0.000370939 -0.000172733 -0.000883859 -0.000175856 
0.00198044 -0.000283063 0.000411775 0.00205642 -0.000840883 0.00260061 0.000767353 0.000588001 0.00122067 0.000744065 
-0.000949709 0.000666655 0.000319922 -0.00144045 0.00165967 -4.11644e-06 -0.00153278 -0.00285521 -0.00553311 -0.00250255 
-0.00297882 6.06845e-05 0.00226843 0.00430136 0.00297366 -0.00145631 -0.00230911 -0.000306612 0.00213368 0.000844612 
-0.00123576 -0.000574826 0.000998706 0.000293344 -0.00126358 0.000438863 0.000998438 -0.000978592 -0.000752624 0.00103677 
-0.000118413 -0.000323505 0.00069336 -0.000305156 -0.000388003 0.000417262 -0.00048578 -0.000105746 0.000241182 -0.000389153 
0.000206275 4.7149e-05 -0.000180142 0.000279791 -0.000122253 9.8093e-05 0.000139539 -0.000112437 0.000178554 -0.000135862 
6.78364e-06 -5.6991e-05 -0.000151273 2.40535e-06 -0.000166064 1.3767e-05 -7.68486e-05 1.07591e-07 9.26523e-06 -1.36896e-05 
2.13569e-05 -6.17502e-05 -2.96819e-05 -0.000129917 -6.98788e-05 -0.000141891 -6.07188e-05 -1.85547e-05 7.94818e-05 0.000155629 
0.000249058 0.000297455 0.000301808 0.000259667 0.000188828 0.000101808 -3.48162e-05 -0.000130681 -0.000255677 -0.000285043 
-0.000167552 0.000129846 0.000414163 0.000424058 -4.40342e-05 -0.000345131 0.000259543 0.000844381 5.12352e-05 -0.00196569 
0.000845431 0.000626767 -0.0010258 0.00292519 -0.000727376 0.00147181 0.00211983 0.00151727 0.00190231 0.00146017 
0.00233184 0.00281854 -0.00323316 -0.00073024 0.000230207 -0.000318735 0.00183731 0.000887879 0.00332836 0.00540313 
0.00288499 0.00157226 -0.00283848 -0.00336389 -0.00420398 -0.00128945 0.00245885 0.00263761 -0.0001943 -0.00232946 
7.38651e-05 0.0014451 7.47224e-05 -0.00122883 0.000461505 0.00108462 -0.000859168 -0.000643415 0.0012715 0.000256174 
-0.000919118 0.000377638 2.36317e-05 -0.000604962 0.000606776 9.34768e-05 -0.000258688 0.00057427 -0.000110777 -7.40679e-05 
0.000375125 -0.000355887 0.000120416 4.74478e-06 -0.000265132 0.000159542 -0.00026142 -4.98544e-05 -3.57844e-05 -0.000219407 
8.73876e-05 -0.000161628 4.90866e-05 -2.88062e-05 -3.60785e-05 3.88186e-05 -0.000100016 3.56384e-05 -0.000129182 -4.14536e-06 
-8.10423e-05 -2.37758e-05 -2.52995e-05 -2.84155e-05 1.39967e-05 -6.50715e-05 -6.30204e-05 -0.000183812 -0.000213691 -0.000344738 
-0.000365169 -0.000424238 -0.000354947 -0.000318473 -0.000155077 2.55704e-05 0.000242407 0.00044397 0.000538711 0.000400191 
7.38941e-05 -0.000248711 -0.000212942 0.000234009 0.000465349 -0.00038636 -0.000924518 1.61757e-07 0.00212412 -0.000609314 
-0.00012241 0.00248485 -0.00187548 0.00252197 0.000450884 -0.000276154 0.000677898 0.000570708 0.000565804 0.00193062 
0.00145023 -0.00450277 -0.00433534 0.000389214 0.000272206 0.00175394 0.000460644 -0.00195929 -0.000733206 -0.00272176 
-0.00362546 -0.00271917 -0.000101446 0.00472425 0.00481205 0.00421896 7.31245e-05 -0.00245389 -0.00223726 0.00115276 
0.00215558 -0.000628424 -0.00147462 0.000590773 0.00111719 -0.00106733 -0.000721062 0.00120152 0.000128425 -0.00130088 
0.000232874 0.000622812 -0.000508341 0.000345674 0.000299341 -0.000700694 0.000182765 2.56421e-05 -0.000521199 0.000340794 
-0.000183743 -0.000177371 0.00034346 -0.000250043 0.000198354 0.0001202 -0.000109999 0.000311461 -8.52998e-05 0.000184854 
0.000116365 6.1453e-06 0.000220018 -4.35089e-05 0.00019587 4.07974e-05 0.000137034 0.000167643 0.000119222 0.000225469 
0.000102469 0.000243859 9.15754e-05 0.000171504 0.000107979 0.000161874 0.000148382 0.000210769 0.000257468 0.000295094 
0.000328183 0.000281865 0.000238758 5.01457e-05 -0.000168981 -0.000455138 -0.000708877 -0.000815242 -0.000635929 -0.000250137 
0.00012225 6.99104e-05 -0.000328521 -0.000453315 0.000610358 0.00103734 -6.99014e-05 -0.00209847 0.000812171 0.000730265 
-0.00225491 0.00326987 -0.00144975 0.000659288 0.0015844 0.00050651 0.000593 0.00109329 0.000518937 -0.000297173 
-0.00160891 -0.00178173 0.00220674 0.00317322 0.00244655 0.00137649 -0.00129541 -0.000451315 0.0015258 0.00155574 
0.00192134 0.00119616 0.00071521 -0.00211663 -0.00576481 -0.00552168 -0.00295377 0.00146813 0.00267904 0.00156648 
-0.00173941 -0.00154386 0.00102026 0.00129817 -0.00117776 -0.000661388 0.00139925 0.000291216 -0.00137055 0.000497334 
0.00102514 -0.000542881 -0.000248092 0.000466789 -0.000660092 0.0001507 0.000544962 -0.000365697 0.000251104 0.000257595 
-0.000425122 0.000368112 -9.85266e-05 -0.000183943 0.000277281 -0.000341091 8.86495e-05 -1.49897e-05 -0.0002022 0.000173874 
-0.000236056 8.31336e-05 -9.42841e-05 -8.78834e-05 1.9451e-05 -0.000219449 1.45747e-05 -0.000248262 -8.135e-05 -0.000183422 
-0.000164012 -0.000103849 -0.000112569 -1.24984e-05 -7.28998e-05 5.91558e-05 -6.06207e-05 -1.9433e-05 -0.000167064 -0.000175368 
-0.000305205 -0.00029824 -0.000260992 -7.81031e-05 0.000111329 0.000368098 0.000398571 0.000225785 -0.000168145 -0.000425909 
-0.000233222 0.000265054 0.000353085 -0.000842661 -0.00113188 0.000200158 0.00203284 -0.000853708 -0.000976608 0.00301713 
-0.00304391 0.00260671 0.000895972 -0.000289585 0.00066728 0.000426574 -0.000350415 -0.000187569 0.000704229 0.000505094 
0.00058047 0.00153995 -0.00073808 -0.00129964 -0.00196639 -0.00307061 -0.00194564 -0.00019718 0.000693623 -0.000442259 
-0.00198233 -0.00150238 0.000254707 0.00198937 0.00465263 0.00684794 0.00596185 0.00155845 -0.00252062 -0.00269695 
-0.000416912 0.00188461 0.000864603 -0.00130706 -0.000754331 0.00138523 0.000141894 -0.00150654 0.000258293 0.00119156 
-0.000933529 -0.000623694 0.000697229 -0.000193016 -0.00015183 0.000692243 -0.000523379 -0.000243709 0.000422528 -0.000500905 
0.000166273 0.000313609 -0.000391552 0.000363767 -9.2163e-05 -0.000139266 0.000321785 -0.000259524 0.000177094 -3.40001e-05 
-0.000149804 0.000143139 -0.000276138 0.000110643 -0.000112949 2.18241e-07 6.86077e-05 -2.6539e-05 0.000169701 -4.12792e-05 
0.000134897 -0.000108656 -3.92394e-05 -0.000214245 -0.000248314 -0.000302952 -0.000304867 -0.000210236 -0.000167097 1.56669e-05 
7.05478e-05 0.000115068 -2.93385e-05 -0.000154871 -0.000421761 -0.000418941 -0.000301104 2.26663e-05 9.05952e-05 -0.000282289 
-0.000855541 -0.000833283 0.000567176 0.000788351 -0.000720165 -0.00219918 0.000691952 0.00124033 -0.00350727 0.0036176 
-0.00226775 -0.000417856 0.00139974 0.000504623 0.000410263 0.000837412 0.000582826 -0.000247847 -0.000599816 0.000442465 
0.00100414 -0.00348207 -0.003794 0.000952245 0.00130184 0.00254096 0.00324609 0.00209845 0.00203718 -0.000449299 
-0.000843445 0.000417484 -0.000220603 -0.00191498 -0.00483671 -0.0066395 -0.00731827 -0.00524403 -4.58695e-05 0.00332772 
0.00243229 -0.000726252 -0.00166141 -0.000184604 0.00139754 1.20912e-05 -0.00114962 0.000296251 0.00139098 -0.000785046 
-0.000681319 0.00102981 0.000228644 -0.000644988 0.000537224 -0.000315029 -0.000442298 0.000724158 -0.000153666 -0.000252927 
0.000543494 -0.00054024 -7.37511e-05 0.000229692 -0.000484589 0.000334584 -0.000104502 -0.000134577 0.000275653 -0.000271455 
0.00027554 7.79098e-06 0.000101345 0.000278147 -4.50188e-05 0.000323875 -5.85925e-05 0.000119711 8.43522e-06 1.83476e-05 
9.74633e-05 4.89207e-05 0.000311067 0.000221194 0.000460174 0.000337128 0.000407185 0.000207079 0.000124759 -9.95893e-05 
-0.000114756 -0.000127651 -1.08559e-05 0.000128717 0.000107279 -5.7213e-05 -0.000275588 -0.000210855 0.000365562 0.000924863 
0.000765133 -0.000892135 -0.00102592 0.0006468 0.00169595 -0.00112264 -0.00208542 0.00362237 -0.00429799 0.00227495 
0.000990288 -0.000799074 0.000367966 0.000762883 0.000183243 -9.9573e-05 1.28094e-05 9.716e-05 -0.000456869 -0.000880851 
-0.0016569 -0.00419915 0.00252507 0.00489704 0.00113799 -0.000185697 -0.00330983 -0.00347058 -0.00213931 -0.00334529 
-0.00093146 0.000332987 0.000967814 0.00219053 0.00399556 0.00748414 0.00823089 0.00723788 0.00360804 -0.00127762 
-0.00378346 -0.00175458 0.00145141 0.00132395 -0.000484381 -0.00111131 0.000561025 0.000704432 -0.000658501 -0.000950583 
0.000990898 0.000124743 -0.000869913 0.000139591 0.000298662 -0.000548422 0.000678834 5.85339e-05 -0.000718057 0.000508612 
-8.26331e-05 -0.000330054 0.000718023 -0.000212604 9.4961e-05 0.000380858 -0.000410231 0.000326473 -0.000122132 -0.000120846 
0.0002621 -0.000375079 0.000126836 -0.000266536 -0.000180643 -0.000118526 -0.000240935 2.42017e-05 -0.000270433 8.64792e-05 
-0.000187958 -0.000105952 -0.00024182 -0.000277245 -0.000288374 -0.000324193 -0.000150361 -9.53212e-05 0.000162275 0.000144818 
0.000276939 0.000169973 0.000192692 0.000261379 0.000520848 0.000622322 0.000443429 -0.000366413 -0.000895499 -0.000649431 
0.00117029 0.0010702 -0.000938622 -0.00161 0.000898042 0.002221 -0.00456872 0.00425758 -0.00277424 -0.00164996 
0.000665608 -4.18557e-05 -0.000294172 0.000440831 0.000703964 0.000404299 -5.91211e-05 -0.000209088 -0.00031532 -0.00102901 
-0.00179878 0.000603736 0.00436302 -0.0005505 -0.00384278 -0.00316102 -0.00173874 0.00305421 0.00373341 0.00219878 
0.00273253 0.000986534 -0.000189655 -0.00240209 -0.00422008 -0.00625116 -0.00923022 -0.00903067 -0.00627245 -0.00141464 
0.00242147 0.00374752 0.000859799 -0.00162481 -0.000989188 0.000982094 0.000512233 -0.0007345 -0.000253428 0.000888318 
0.000283357 -0.000769002 0.000246831 0.000534939 -0.00035305 0.000181209 0.000216934 -0.000817585 0.000371051 0.000450229 
-0.000621608 0.000376928 -6.50574e-05 -0.000614639 0.000380996 -0.000436136 -7.56058e-05 0.000247079 -0.000368696 0.000274597 
-0.000190317 -3.03587e-05 0.000174909 -0.000151011 0.000380978 -7.28316e-05 0.000262088 0.000116325 3.17459e-05 0.000136447 
-5.52516e-05 0.000205889 -3.32526e-05 0.000211131 3.32879e-05 0.000144825 -5.47756e-05 -4.83219e-05 -0.00010724 -0.000107603 
-0.000109124 -0.000133834 -0.000330866 -0.000576897 -0.00060014 -0.000210671 0.00080188 0.00134127 0.000982412 -0.00091101 
-0.000607311 0.00175333 0.00177644 -0.000487964 -0.00251963 0.00515834 -0.00493307 0.0023834 0.00141658 -0.00116221 
-0.000465049 0.000239148 -7.41461e-05 -0.000176784 3.37073e-05 7.38488e-05 -0.000157518 -0.000294362 -0.000187389 -0.000373322 
-9.31266e-05 0.00121175 -0.000828811 -0.00315173 -0.000533741 0.00221098 0.00406813 0.00351947 -0.00150743 -0.00405947 
-0.00380265 -0.00292 -0.00121675 0.000287272 0.00346178 0.00606893 0.0082887 0.00984733 0.00867876 0.00433508 
-0.000866392 -0.00337402 -0.00316422 -0.00010396 0.00139494 0.000657906 -0.00104134 6.82183e-05 0.000564615 -0.000134264 
-0.000813305 0.000274087 0.000322308 -0.000381816 -7.40495e-05 0.000254244 -0.000488327 0.000283619 0.000680188 -0.000697008 
1.07505e-07 0.000476662 -0.000475036 0.00046673 0.000285101 -0.000335527 0.000611532 -0.000245423 3.14384e-05 0.000304223 
-0.000305927 0.000379962 -0.000137459 6.02967e-05 1.37017e-05 -0.000234736 9.15758e-05 -0.000305271 0.00012612 -0.000105558 
0.00010918 9.01249e-05 0.000104793 0.000178407 4.10584e-05 0.000179577 -1.89329e-05 3.4198e-05 -0.00014017 -1.93902e-05 
-5.68386e-06 0.000394057 0.00063816 0.000707102 0.000160909 -0.000875436 -0.00130516 -0.000655333 0.00132391 0.000933738 
-0.00178597 -0.000974606 0.00091373 0.00364358 -0.00515992 0.0059931 -0.00190486 -0.00149982 0.00108341 0.000272856 
-0.000675705 -0.000458423 -5.82524e-05 -2.41338e-05 4.87201e-05 0.000100641 -0.000174995 -0.000619704 -0.000582844 -0.000246422 
-5.2529e-05 -0.00183721 -0.00138391 0.00185664 0.00280341 0.00116185 -0.00106333 -0.00416062 -0.00461964 -0.00152956 
0.00214861 0.00404737 0.00289779 0.00131087 -0.000863869 -0.00410027 -0.00742605 -0.00947706 -0.00927026 -0.00687536 
-0.00160443 0.00289284 0.00399099 0.00225254 -0.000251661 -0.000975528 -0.000412371 0.0005954 -0.000298169 -0.000197424 
0.000349474 0.00040528 -0.000455794 0.000108607 0.000251539 -0.00032853 7.10853e-05 0.000480389 -0.000754723 -0.000293038 
0.000721792 -0.000449139 -0.000147922 0.000326741 -0.000676259 0.000110565 2.1622e-05 -0.000423706 0.000345367 -0.000287175 
3.30847e-05 5.12069e-05 -0.00032103 0.000304801 -0.000222112 0.000200075 4.50934e-05 4.37648e-05 0.000121277 -0.000265431 
-4.14665e-05 -0.000430094 -0.000214012 -0.000397858 -0.00014148 -7.49788e-05 0.000190798 0.000297164 0.000321565 0.000142101 
-0.000293213 -0.000651823 -0.000679699 -9.1563e-05 0.000955039 0.00117562 0.000237983 -0.00172267 -0.00113695 0.00209736 
0.000513382 -0.000763197 -0.0040199 0.0060513 -0.0060992 0.00226568 0.00235472 -0.000571383 2.75986e-05 0.000842582 
0.000563084 -9.29658e-05 -0.000222029 -0.000212229 -0.000315989 -0.000249652 -0.000186007 -0.000442482 -0.000708555 -0.00069678 
-0.00135616 -0.00169186 0.00290002 0.00312229 -0.00173981 -0.00313495 -0.00229179 0.000347443 0.00389945 0.00425086 
0.00322009 -0.000202922 -0.00327847 -0.00275259 -0.00138585 0.00163823 0.00436465 0.0079297 0.00922136 0.00743982 
0.00362693 -0.00153865 -0.00446337 -0.00410268 -0.00144662 0.000157491 0.000545486 0.000462255 7.08444e-05 6.42303e-05 
-0.000248622 -0.000193022 8.11725e-05 0.000237365 -0.000371071 0.000141797 0.000457734 -0.000387864 -0.000185219 0.000971394 
-0.000119218 -0.000415956 0.000629147 -0.00017657 -4.63508e-05 0.000673676 -0.000368102 0.000237763 7.98018e-05 -0.000349179 
0.00032248 -0.000220056 0.000106487 -6.40335e-05 -0.000183604 0.000165375 -0.000397322 0.000108128 -5.10793e-05 0.000254652 
0.000315063 0.000369089 0.00049748 0.000209849 0.000115876 -0.000362031 -0.000379918 -0.000618555 -0.000245616 8.54853e-05 
0.000576331 0.000436184 -0.000144816 -0.00122177 -0.00116107 3.60392e-05 0.00188594 0.00102693 -0.00275741 -0.000364858 
0.000311185 0.00411014 -0.00705834 0.00628618 -0.00220644 -0.00261048 0.000911045 0.000657627 -0.000104452 4.88858e-05 
0.000560198 0.000537625 0.000156371 6.25312e-05 -0.000132967 -0.000336701 -0.000388209 -0.000578024 -0.000731544 -0.000625775 
-0.00137032 0.00115938 0.00371272 -0.00174283 -0.00435913 0.000124608 0.0031276 0.00415079 0.000690538 -0.00422431 
-0.0048549 -0.00484989 -0.00186086 0.00137552 0.00202966 0.00121657 -0.00226928 -0.00432644 -0.00731552 -0.0072408 
-0.00429495 0.000611039 0.00462484 0.00544042 0.003748 0.00113408 0.000288381 -0.000324092 -0.000911832 -0.000494162 
0.000573546 0.000558882 -0.000367334 -0.000296706 0.0002662 0.000282407 -0.000608551 -0.000237879 0.000528412 -0.000240462 
-0.000855975 0.000358427 -3.42517e-05 -0.000395612 0.000306943 -0.000308337 -0.000285 0.000321672 -0.000229272 0.000408355 
8.86404e-05 -9.77433e-05 0.000411197 -0.000204561 0.000232995 4.78977e-05 0.000100125 0.000153325 -0.000250682 -8.4683e-05 
-0.000454762 -0.000256614 -0.000405782 6.34732e-05 0.000266607 0.000503492 0.000596536 0.000289583 -6.83899e-05 -0.000466692 
-0.000239065 0.000444445 0.00142102 0.00106312 -0.000493875 -0.00216308 -0.00108539 0.0031807 -0.000147258 -0.000320705 
-0.00468799 0.00749092 -0.00712024 0.00149511 0.00237911 -0.0014732 -0.00133962 -0.000177179 9.82698e-05 2.6004e-05 
0.000210576 0.000731528 0.000707881 0.000471659 0.000139396 -0.000430308 -0.000514778 -0.000458179 -0.000859274 -0.000381946 
-0.000220937 0.00211748 0.000259387 -0.00383815 -6.78727e-05 0.00425469 0.00222169 -0.00162116 -0.00566262 -0.00327087 
0.00276805 0.00520426 0.0062065 0.00372353 0.00106526 -0.000600985 -0.000615158 0.00247272 0.00385779 0.00544788 
0.00364732 -7.60386e-05 -0.00505025 -0.00717325 -0.00573919 -0.00324801 -0.00143353 -0.000897925 0.000589674 0.00157347 
0.00031899 -0.00145846 -0.000428227 0.00103588 2.01631e-05 -0.000801296 0.000221764 0.000811813 -0.000283695 -0.000364954 
0.000569909 0.000473791 -0.000322684 0.000197471 4.37352e-05 -0.000257642 0.000404802 -7.48484e-05 -0.000295407 -7.01648e-05 
-0.000485813 -6.04063e-06 -0.000244144 -0.000130815 0.000208203 -0.000184804 0.000140129 -9.1897e-05 0.000209266 8.77964e-05 
0.000141899 0.000183134 -0.000192557 -0.000208286 -0.000532507 -0.000367966 -0.000139356 0.000271685 0.000416701 0.000123127 
-0.000745953 -0.00153876 -0.000903747 0.00106786 0.00245248 0.00114805 -0.00358007 0.000694781 0.000332618 0.00513791 
-0.00821342 0.00760171 -0.00134073 -0.00291119 0.00106716 0.00114073 -0.00033511 -0.000725581 -0.000601882 -0.000443463 
-0.000500784 -0.000134193 0.000463922 0.000779179 0.00107195 0.000408115 -0.00064736 -0.000611729 -0.000904643 -0.000418926 
0.000463032 0.000478973 -0.00153169 -0.000612594 0.00317136 0.0015067 -0.0026534 -0.00342291 -0.000671331 0.00503272 
0.0051213 -0.000217558 -0.00481315 -0.00725974 -0.00551876 -0.00353743 -0.00141913 -0.000501038 -0.00224493 -0.00271298 
-0.00239221 0.00108399 0.00519382 0.00884113 0.00872093 0.00540527 0.00300252 0.00217668 0.00133381 -0.00149591 
-0.00206292 0.000591533 0.00228236 -0.000264232 -0.00137793 0.00075189 0.000992757 -0.000868984 -0.000454491 0.00073734 
-4.53375e-05 -0.000609021 9.34906e-05 0.000116644 -3.94012e-05 0.000287064 -7.53372e-05 -0.000128804 0.000466742 9.92734e-05 
0.000208194 0.000374783 7.09056e-05 8.1399e-05 -0.000340361 -0.000152294 -0.000143738 -0.000176998 9.50597e-05 -4.17288e-05 
0.000341394 0.000266919 0.000440474 0.000373692 0.000234302 -0.000241218 -0.000492759 -0.0004908 9.26158e-05 0.00102552 
0.00170028 0.000743008 -0.00159378 -0.00262576 -0.00107011 0.00408673 -0.00115116 -0.000242333 -0.00543538 0.00921135 
-0.00793471 0.00132992 0.00357732 -0.000639597 -0.0012139 0.000246916 0.000569879 0.000161654 -0.00018045 -0.000297124 
-0.000389147 -0.000553673 -0.000273336 -0.000101733 0.000549309 0.00128598 0.00032702 -0.000359076 -0.000875708 -0.00080689 
0.000163461 -0.000706706 0.000266409 0.00194803 0.000616972 -0.00236949 -0.00173324 0.00149521 0.00362947 0.00194035 
-0.00379374 -0.00604507 -0.00275377 0.00316446 0.00746993 0.00717015 0.00570106 0.00364958 0.0019149 0.00175305 
0.000714508 -0.00157444 -0.00623502 -0.0100977 -0.011273 -0.00887796 -0.00466047 -0.00322976 -0.00300948 -0.00106842 
0.00291738 0.001976 -0.00216576 -0.00260177 0.00137871 0.00105348 -0.00173564 -0.000631149 0.00128157 -0.000424848 
-0.000655782 0.000410173 3.00023e-05 -0.000247961 -4.37474e-07 -0.000257264 -4.08623e-05 -9.19598e-05 -0.000270719 6.52345e-05 
-2.84918e-05 -0.000339405 8.33176e-05 0.000116364 0.000368665 0.000429942 0.000104807 0.000184096 -0.000282236 -0.000444869 
-0.000630403 -0.000578975 -0.000308299 -7.32083e-06 0.0006335 0.00085445 0.000623683 -0.000237376 -0.00127198 -0.00174599 
-0.000545224 0.00216875 0.00267899 0.000984234 -0.00459925 0.00169734 0.000267075 0.00588335 -0.0101269 0.00851465 
-0.000935258 -0.00397464 0.000564942 0.00165408 0.000291276 -0.000209703 0.000318283 0.00050346 0.000429568 0.000141362 
-0.000131328 -0.000513151 -0.000476638 -0.000367886 -0.000437286 0.000684162 0.000936279 0.000303768 -0.000294277 -0.00103793 
-0.000208588 3.13421e-05 0.00221399 0.000280086 -0.00266628 -0.000779555 0.00257995 0.00261766 -0.000683162 -0.00426524 
-0.00320689 0.00223935 0.00610219 0.00524281 -0.000482623 -0.00638286 -0.00828698 -0.00740839 -0.00565993 -0.00317143 
-0.00110771 0.00203528 0.00594919 0.0109324 0.0135383 0.0118189 0.0075221 0.00383644 0.00385073 0.00339012 
-0.000411621 -0.00446711 -0.000948518 0.00398367 0.00195792 -0.00263761 8.83776e-05 0.0024697 -0.000342336 -0.00111306 
0.0012713 0.000101695 -0.000485365 0.000708341 -0.000144747 -0.000267821 0.000637721 -0.000232864 -3.36116e-06 -7.06141e-06 
-0.000465134 0.000151457 -0.000207252 -0.000408303 -0.000104854 -0.000421498 6.81331e-06 0.000161117 0.000492089 0.000820577 
0.000622146 0.000372055 -0.000195984 -0.000829519 -0.00118782 -0.000552941 0.000343343 0.00165729 0.00170794 0.000444986 
-0.00268105 -0.00246948 -0.000753399 0.00514964 -0.00221788 -0.000417133 -0.00637216 0.0109729 -0.00912823 0.000270289 
0.0044632 -0.000378845 -0.00182693 -0.000498058 0.000419096 -6.39851e-05 -0.000157133 9.4189e-05 0.000348969 0.000652649 
0.00071685 0.000275253 -0.000258124 -0.000331504 -0.000908492 -0.000512929 0.000604365 0.000702133 0.000541756 -0.000780682 
3.2652e-05 0.00129943 0.00159803 -0.00254399 -0.00169762 0.00315388 0.00254521 -0.00166515 -0.00398719 -0.00123217 
0.0042884 0.004688 -0.000314757 -0.00563205 -0.00689858 -0.00262146 0.00395623 0.00825044 0.00844077 0.00707192 
0.00379156 0.000199851 -0.00511687 -0.00999047 -0.0141793 -0.0143872 -0.0101915 -0.00504897 -0.00323314 -0.00442947 
-0.00254753 0.0032241 0.00552631 -0.00111868 -0.00518805 -3.04584e-05 0.00342459 -0.0018055 -0.00243562 0.00185221 
0.00025163 -0.00161536 0.00104445 -0.000135564 -0.000697416 0.00123773 -0.000269617 -0.000423772 0.00104291 -0.000135799 
0.000495948 0.000569845 -0.000177827 0.000526073 -0.000170655 -0.000128996 -0.000187046 -0.00062127 -0.000485499 -0.000591376 
-1.05265e-05 0.000204201 0.00120805 0.00119324 0.000696714 -0.000538425 -0.00162856 -0.00142673 0.000154655 0.0032848 
0.00251287 0.000428996 -0.00534947 0.00267934 0.000897809 0.00680611 -0.011731 0.00961981 0.000603012 -0.00509086 
-1.98971e-05 0.00186174 0.000535466 -0.000717698 -0.000325199 3.2558e-05 -0.000203527 -0.000133921 -0.000227482 -0.000126742 
0.000421901 0.000693583 0.000429152 0.000453836 -0.000199186 -0.00113587 -0.00059584 4.89876e-05 0.00124421 -0.000103756 
0.000493869 0.00142818 -0.000415131 -0.00271943 0.00166232 0.00350309 -0.00139945 -0.00359707 -0.000588489 0.00406591 
0.00345786 -0.00299571 -0.00593388 -0.00222512 0.00453425 0.00772065 0.00554923 -0.000632359 -0.00662614 -0.00837428 
-0.0075354 -0.00348951 0.00118515 0.00791646 0.0127421 0.0149939 0.0121286 0.00657176 0.00225867 0.0029107 
0.0041654 -0.00014227 -0.00684615 -0.0053652 0.00369439 0.00489089 -0.00291621 -0.00305045 0.00342153 0.000895678 