# vtk DataFile Version 2.0
Titre
ASCII
DATASET STRUCTURED_POINTS
DIMENSIONS 100 100 1
ORIGIN 0.0 0.0 0.0
SPACING 0.1 0.1 0.0
POINT_DATA 10000 
SCALARS rho float
LOOKUP_TABLE default
-3.36132e-38 -2.16763e-37 -1.363e-36 -8.23124e-36 -4.76877e-35 -2.64646e-34 -1.40456e-33 -7.11647e-33 -3.43561e-32 -1.57703e-31 
-6.86693e-31 -2.82913e-30 -1.09968e-29 -4.01979e-29 -1.37687e-28 -4.40103e-28 -1.30659e-27 -3.58336e-27 -9.02087e-27 -2.06891e-26 
-4.28372e-26 -7.91784e-26 -1.2879e-25 -1.80879e-25 -2.13539e-25 -2.03309e-25 -1.4488e-25 -6.43733e-26 -4.55254e-27 1.25594e-26 
3.72148e-27 -2.72806e-27 -6.32962e-28 7.9051e-28 -1.31606e-28 -1.15151e-28 9.42378e-29 -4.0042e-29 1.23715e-29 -3.08832e-30 
6.5779e-31 -1.23672e-31 2.0981e-32 -3.25517e-33 4.65181e-34 -6.14221e-35 7.50105e-36 -8.47529e-37 8.86343e-38 -8.58649e-39 
7.71496e-40 -6.43929e-41 5.00156e-42 -3.62212e-43 2.4505e-44 -1.55173e-45 9.21445e-47 -5.14054e-48 2.69897e-49 -1.33585e-50 
6.24228e-52 -2.75726e-53 1.15193e-54 -4.54898e-56 1.69236e-57 -5.87586e-59 1.85738e-60 -4.97186e-62 8.11225e-64 2.38267e-65 
-3.69523e-66 2.851e-67 -1.84339e-68 1.09816e-69 -5.82812e-71 5.18742e-71 9.76434e-70 1.95202e-68 3.75931e-67 7.35501e-66 
1.37066e-64 2.61491e-63 4.67159e-62 8.62405e-61 1.44807e-59 2.53662e-58 3.79472e-57 5.89832e-56 6.1294e-55 4.45096e-54 
-1.57941e-52 -6.80041e-51 -2.44034e-49 -6.61904e-48 -1.80468e-46 -4.45534e-45 -1.10937e-43 -2.63187e-42 -6.26435e-41 -1.45134e-39 
2.21506e-37 1.47319e-36 9.54493e-36 5.94066e-35 3.54774e-34 2.02996e-33 1.11109e-32 5.80746e-32 2.89322e-31 1.371e-30 
6.16538e-30 2.62454e-29 1.05461e-28 3.98759e-28 1.41371e-27 4.68045e-27 1.44041e-26 4.09866e-26 1.07163e-25 2.55557e-25 
5.50949e-25 1.06209e-24 1.80553e-24 2.6576e-24 3.30156e-24 3.32991e-24 2.54781e-24 1.26605e-24 1.83884e-25 -2.1018e-25 
-8.90695e-26 4.54197e-26 1.74672e-26 -1.54142e-26 1.41803e-27 2.92757e-27 -2.07591e-27 8.39747e-28 -2.5238e-28 6.20037e-29 
-1.31299e-29 2.47906e-30 -4.26221e-31 6.74746e-32 -9.87619e-33 1.33687e-33 -1.6718e-34 1.92985e-35 -2.05641e-36 2.02446e-37 
-1.84401e-38 1.55702e-39 -1.22126e-40 8.91751e-42 -6.07476e-43 3.86872e-44 -2.30793e-45 1.29218e-46 -6.80264e-48 3.3734e-49 
-1.57864e-50 6.98434e-52 -2.9271e-53 1.16442e-54 -4.40646e-56 1.58991e-57 -5.48221e-59 1.81024e-60 -5.73196e-62 1.73982e-63 
-5.04093e-65 1.37487e-66 -3.35566e-68 4.62179e-70 7.28488e-71 -7.4433e-71 -8.87233e-70 -1.6572e-68 -2.95867e-67 -5.0282e-66 
-7.90092e-65 -1.0721e-63 -9.62316e-63 7.84601e-62 7.75883e-60 2.95622e-58 9.10645e-57 2.54583e-55 6.74253e-54 1.7242e-52 
4.30643e-51 1.05683e-49 2.55969e-48 6.13235e-47 1.45594e-45 3.42811e-44 8.01071e-43 1.8579e-41 4.27719e-40 9.77181e-39 
-1.42374e-36 -9.75511e-36 -6.50683e-35 -4.17021e-34 -2.56509e-33 -1.51209e-32 -8.52912e-32 -4.59565e-31 -2.36104e-30 -1.15423e-29 
-5.35726e-29 -2.35492e-28 -9.77671e-28 -3.82163e-27 -1.40161e-26 -4.80402e-26 -1.53183e-25 -4.52032e-25 -1.22693e-24 -3.04106e-24 
-6.82337e-24 -1.37121e-23 -2.4349e-23 -3.75362e-23 -4.90233e-23 -5.2295e-23 -4.28172e-23 -2.35186e-23 -4.98621e-24 3.22345e-24 
1.90663e-24 -6.86084e-25 -4.13841e-25 2.81645e-25 -2.45361e-27 -6.83132e-26 4.34684e-26 -1.6838e-26 4.9348e-27 -1.19654e-27 
2.53108e-28 -4.8326e-29 8.48931e-30 -1.38204e-30 2.08453e-31 -2.90397e-32 3.72585e-33 -4.39651e-34 4.7721e-35 -4.77092e-36 
4.40215e-37 -3.75777e-38 2.97494e-39 -2.18968e-40 1.50194e-41 -9.62185e-43 5.7688e-44 -3.24312e-45 1.71265e-46 -8.51018e-48 
3.98559e-49 -1.76217e-50 7.36793e-52 -2.91864e-53 1.09755e-54 -3.92697e-56 1.3402e-57 -4.37494e-59 1.37006e-60 -4.12804e-62 
1.19985e-63 -3.37338e-65 9.30778e-67 -3.01781e-68 2.79352e-69 -7.2772e-70 -3.5132e-70 -1.69645e-68 -4.83982e-67 -1.32753e-65 
-3.53535e-64 -9.2132e-63 -2.36154e-61 -5.97448e-60 -1.49548e-58 -3.71016e-57 -9.13411e-56 -2.23342e-54 -5.42687e-53 -1.31085e-51 
-3.14817e-50 -7.51766e-49 -1.78484e-47 -4.21255e-46 -9.88173e-45 -2.3033e-43 -5.33301e-42 -1.22618e-40 -2.79857e-39 -6.33804e-38 
8.77878e-36 6.19774e-35 4.25671e-34 2.80968e-33 1.78028e-32 1.08131e-31 6.28615e-31 3.49193e-30 1.85015e-29 9.33138e-29 
4.47024e-28 2.02912e-27 8.70366e-27 3.51716e-26 1.33442e-25 4.73492e-25 1.56428e-24 4.78703e-24 1.34883e-23 3.47457e-23 
8.11335e-23 1.6995e-22 3.15182e-22 5.08741e-22 6.98155e-22 7.86903e-22 6.8784e-22 4.14271e-22 1.13706e-22 -4.42036e-23 
-3.73325e-23 9.0853e-24 8.81702e-24 -4.80574e-24 -4.38944e-25 1.48365e-24 -8.65518e-25 3.22304e-25 -9.22948e-26 2.21616e-26 
-4.71249e-27 9.18001e-28 -1.66329e-28 2.80571e-29 -4.38078e-30 6.29195e-31 -8.28109e-32 9.97684e-33 -1.10134e-33 1.11641e-34 
-1.04209e-35 8.9835e-37 -7.17337e-38 5.32036e-39 -3.6746e-40 2.36888e-41 -1.42842e-42 8.07204e-44 -4.28228e-45 2.13611e-46 
-1.00341e-47 4.44489e-49 -1.8595e-50 7.35754e-52 -2.75795e-53 9.81227e-55 -3.32073e-56 1.07178e-57 -3.30897e-59 9.80562e-61 
-2.79887e-62 7.71212e-64 -2.0179e-65 3.58812e-67 4.53117e-68 -1.69425e-68 1.17867e-68 1.76831e-67 4.48329e-66 1.12425e-64 
2.80768e-63 6.98296e-62 1.72955e-60 4.26592e-59 1.04772e-57 2.56203e-56 6.23696e-55 1.51127e-53 3.64425e-52 8.74346e-51 
2.08674e-49 4.95284e-48 1.16876e-46 2.7413e-45 6.38874e-44 1.47897e-42 3.39971e-41 7.75716e-40 1.7562e-38 3.94349e-37 
-5.18724e-35 -3.77391e-34 -2.66935e-33 -1.81487e-32 -1.18472e-31 -7.41499e-31 -4.44307e-30 -2.54464e-29 -1.39049e-28 -7.23545e-28 
-3.57757e-27 -1.67689e-26 -7.43125e-26 -3.10437e-25 -1.21837e-24 -4.47528e-24 -1.5318e-23 -4.86099e-23 -1.42178e-22 -3.80625e-22 
-9.249e-22 -2.01926e-21 -3.91053e-21 -6.60739e-21 -9.52354e-21 -1.1332e-20 -1.05542e-20 -6.92614e-21 -2.31515e-21 5.13621e-22 
6.74812e-22 -9.70028e-23 -1.72177e-22 7.61606e-23 1.67465e-23 -3.0209e-23 1.639e-23 -5.8836e-24 1.64951e-24 -3.94057e-25 
8.49633e-26 -1.70733e-26 3.22186e-27 -5.6645e-28 9.17274e-29 -1.35707e-29 1.82813e-30 -2.24289e-31 2.51185e-32 -2.57626e-33 
2.42861e-34 -2.11173e-35 1.69936e-36 -1.26947e-37 8.82757e-39 -5.72803e-40 3.47581e-41 -1.97618e-42 1.05451e-43 -5.28924e-45 
2.49712e-46 -1.11105e-47 4.66439e-49 -1.84984e-50 6.93889e-52 -2.46532e-53 8.30998e-55 -2.66293e-56 8.1332e-58 -2.37513e-59 
6.65787e-61 -1.8022e-62 4.84641e-64 -1.68589e-65 1.811e-66 -4.3224e-67 6.11293e-68 -1.20186e-66 -2.9517e-65 -7.3796e-64 
-1.83766e-62 -4.55824e-61 -1.12608e-59 -2.77019e-58 -6.78504e-57 -1.65431e-55 -4.01442e-54 -9.69343e-53 -2.32855e-51 -5.56349e-50 
-1.32176e-48 -3.12165e-47 -7.32693e-46 -1.70858e-44 -3.95721e-43 -9.09989e-42 -2.07693e-40 -4.70308e-39 -1.0562e-37 -2.35142e-36 
2.93287e-34 2.19925e-33 1.60229e-32 1.12229e-31 7.54869e-31 4.86911e-30 3.00746e-29 1.77595e-28 1.0009e-27 5.37343e-27 
2.74226e-26 1.32725e-25 6.07657e-25 2.62402e-24 1.06525e-23 4.05031e-23 1.43621e-22 4.72593e-22 1.43478e-21 3.99157e-21 
1.00927e-20 2.29638e-20 4.64339e-20 8.21102e-20 1.24255e-19 1.55967e-19 1.54519e-19 1.09937e-19 4.31543e-20 -4.25831e-21 
-1.13024e-20 5.8146e-22 3.11094e-21 -1.1106e-21 -4.42152e-22 5.79034e-22 -2.95054e-22 1.02294e-22 -2.81432e-23 6.7331e-24 
-1.48904e-24 3.12538e-25 -6.19429e-26 1.13815e-26 -1.90883e-27 2.89954e-28 -3.98341e-29 4.96022e-30 -5.62007e-31 5.81949e-32 
-5.53127e-33 4.84541e-34 -3.92648e-35 2.95302e-36 -2.06717e-37 1.35032e-38 -8.2491e-40 4.72198e-41 -2.53699e-42 1.28122e-43 
-6.08962e-45 2.72713e-46 -1.15188e-47 4.59299e-49 -1.73048e-50 6.16653e-52 -2.08064e-53 6.65628e-55 -2.02268e-56 5.85229e-58 
-1.61717e-59 4.27649e-61 -1.05545e-62 1.42149e-64 3.07729e-65 -9.59834e-66 2.61778e-66 6.79159e-66 1.83424e-64 4.5831e-63 
1.14103e-61 2.82853e-60 6.98055e-59 1.7148e-57 4.19241e-56 1.0199e-54 2.46836e-53 5.94193e-52 1.42239e-50 3.38512e-49 
8.00732e-48 1.88208e-46 4.39443e-45 1.01894e-43 2.34548e-42 5.35803e-41 1.21425e-39 2.72882e-38 6.07889e-37 1.34173e-35 
-1.58421e-33 -1.22462e-32 -9.19203e-32 -6.63404e-31 -4.59843e-30 -3.05719e-29 -1.94667e-28 -1.18534e-27 -6.89029e-27 -3.81654e-26 
-2.01027e-25 -1.00464e-24 -4.75161e-24 -2.12087e-23 -8.90514e-23 -3.50456e-22 -1.28727e-21 -4.39185e-21 -1.38388e-20 -4.0005e-20 
-1.05248e-19 -2.49544e-19 -5.26784e-19 -9.74719e-19 -1.5481e-18 -2.04859e-18 -2.15584e-18 -1.65621e-18 -7.45543e-19 -3.71796e-22 
1.75432e-19 7.10208e-21 -5.22511e-20 1.46569e-20 9.82381e-21 -1.04718e-20 5.04493e-21 -1.69107e-21 4.57976e-22 -1.10768e-22 
2.54948e-23 -5.6589e-24 1.18382e-24 -2.27026e-25 3.9268e-26 -6.09532e-27 8.50385e-28 -1.07111e-28 1.2246e-29 -1.27773e-30 
1.22275e-31 -1.07804e-32 8.79125e-34 -6.65398e-35 4.68848e-36 -3.08341e-37 1.89695e-38 -1.09383e-39 5.92153e-41 -3.01392e-42 
1.44401e-43 -6.5193e-45 2.77591e-46 -1.11561e-47 4.23464e-49 -1.51912e-50 5.15385e-52 -1.65492e-53 5.03477e-55 -1.4534e-56 
3.99022e-58 -1.04769e-59 2.72813e-61 -9.58582e-63 1.0268e-63 -2.18558e-64 4.652e-65 -5.30427e-65 -1.08175e-63 -2.71078e-62 
-6.74983e-61 -1.67278e-59 -4.12537e-58 -1.01227e-56 -2.47098e-55 -5.99925e-54 -1.44842e-52 -3.47673e-51 -8.29519e-50 -1.96678e-48 
-4.63281e-47 -1.08386e-45 -2.51776e-44 -5.8054e-43 -1.32825e-41 -3.01442e-40 -6.78328e-39 -1.5129e-37 -3.34297e-36 -7.31484e-35 
8.16112e-33 6.50493e-32 5.03147e-31 3.74243e-30 2.67378e-29 1.83248e-28 1.20304e-27 7.55415e-27 4.52934e-26 2.58848e-25 
1.40718e-24 7.26101e-24 3.54746e-23 1.6365e-22 7.10616e-22 2.89421e-21 1.10109e-20 3.89448e-20 1.27351e-19 3.82498e-19 
1.04693e-18 2.58646e-18 5.69945e-18 1.10329e-17 1.83861e-17 2.56354e-17 2.86216e-17 2.36644e-17 1.20158e-17 1.02664e-18 
-2.51606e-18 -3.49205e-19 8.1735e-19 -1.69399e-19 -1.94502e-19 1.78867e-19 -8.18163e-20 2.65284e-20 -7.10418e-21 1.76033e-21 
-4.28891e-22 1.01662e-22 -2.245e-23 4.47117e-24 -7.92836e-25 1.25106e-25 -1.76536e-26 2.24242e-27 -2.58135e-28 2.7096e-29 
-2.60782e-30 2.31228e-31 -1.89667e-32 1.44437e-33 -1.02432e-34 6.78289e-36 -4.2034e-37 2.44254e-38 -1.33308e-39 6.84327e-41 
-3.30807e-42 1.50737e-43 -6.47969e-45 2.62943e-46 -1.00779e-47 3.6498e-49 -1.24945e-50 4.04462e-52 -1.23865e-53 3.59099e-55 
-9.86406e-57 2.56462e-58 -6.10986e-60 7.33584e-62 1.62524e-62 -4.43526e-63 9.53489e-64 5.95792e-65 6.12191e-63 1.52459e-61 
3.7982e-60 9.41317e-59 2.3205e-57 5.68913e-56 1.38692e-54 3.36141e-53 8.09779e-52 1.93862e-50 4.61103e-49 1.08937e-47 
2.55571e-46 5.95223e-45 1.37578e-43 3.15487e-42 7.17505e-41 1.61778e-39 3.61488e-38 8.00141e-37 1.75365e-35 3.80374e-34 
-4.00207e-32 -3.28997e-31 -2.62305e-30 -2.01122e-29 -1.48137e-28 -1.04678e-27 -7.08638e-27 -4.5891e-26 -2.83831e-25 -1.67362e-24 
-9.39018e-24 -5.00249e-23 -2.5244e-22 -1.20345e-21 -5.40353e-21 -2.27722e-20 -8.97177e-20 -3.28917e-19 -1.11602e-18 -3.48214e-18 
-9.91434e-18 -2.55185e-17 -5.86907e-17 -1.18842e-16 -2.07747e-16 -3.05052e-16 -3.60972e-16 -3.20328e-16 -1.81277e-16 -2.92914e-17 
3.31261e-17 8.35971e-18 -1.19083e-17 1.58047e-18 3.51561e-18 -2.886e-18 1.25613e-18 -3.93966e-19 1.05053e-19 -2.71562e-20 
7.12643e-21 -1.81204e-21 4.20315e-22 -8.62968e-23 1.5587e-23 -2.48824e-24 3.53898e-25 -4.52243e-26 5.23272e-27 -5.51935e-28 
5.33806e-29 -4.75751e-30 3.92396e-31 -3.00608e-32 2.14567e-33 -1.43076e-34 8.93326e-36 -5.23283e-37 2.88052e-38 -1.49218e-39 
7.28275e-41 -3.3521e-42 1.4562e-43 -5.97412e-45 2.31563e-46 -8.48287e-48 2.93754e-49 -9.61707e-51 2.97685e-52 -8.71338e-54 
2.41304e-55 -6.34513e-57 1.63899e-58 -5.4974e-60 5.03912e-61 -9.16101e-62 1.7563e-62 -4.45799e-63 -3.19378e-62 -8.14e-61 
-2.02925e-59 -5.03091e-58 -1.24007e-56 -3.03853e-55 -7.39989e-54 -1.7908e-52 -4.3057e-51 -1.02829e-49 -2.43871e-48 -5.74207e-47 
-1.3419e-45 -3.11165e-44 -7.15719e-43 -1.63241e-41 -3.6906e-40 -8.26758e-39 -1.8344e-37 -4.02955e-36 -8.75907e-35 -1.88313e-33 
1.86432e-31 1.58116e-30 1.29982e-29 1.02767e-28 7.80544e-28 5.68792e-27 3.97126e-26 2.65268e-25 1.69252e-24 1.02975e-23 
5.96287e-23 3.2795e-22 1.70917e-21 8.41903e-21 3.9081e-20 1.70387e-19 6.95021e-19 2.64053e-18 9.29433e-18 3.01199e-17 
8.91921e-17 2.39139e-16 5.73969e-16 1.21551e-15 2.22839e-15 3.44461e-15 4.31628e-15 4.10178e-15 2.56384e-15 5.954e-16 
-3.95593e-16 -1.56798e-16 1.61372e-16 -8.46305e-18 -5.87087e-17 4.39601e-17 -1.82125e-17 5.52344e-18 -1.4826e-18 4.09222e-19 
-1.17325e-19 3.1925e-20 -7.7108e-21 1.61888e-21 -2.96082e-22 4.76232e-23 -6.80845e-24 8.73667e-25 -1.01481e-25 1.07467e-26 
-1.04388e-27 9.3482e-29 -7.75154e-30 5.97351e-31 -4.29156e-32 2.88208e-33 -1.81342e-34 1.07112e-35 -5.94904e-37 3.11122e-38 
-1.5339e-39 7.13608e-41 -3.13512e-42 1.30147e-43 -5.10718e-45 1.89501e-46 -6.64926e-48 2.20629e-49 -6.92196e-51 2.05295e-52 
-5.75313e-54 1.51864e-55 -3.65605e-57 5.14629e-59 6.46256e-60 -1.64375e-60 3.06623e-61 -4.5028e-62 1.71894e-61 4.11448e-60 
1.02729e-58 2.54858e-57 6.28333e-56 1.5392e-54 3.74573e-53 9.0538e-52 2.17314e-50 5.17853e-49 1.22485e-47 2.87478e-46 
6.6934e-45 1.54554e-43 3.53804e-42 8.02681e-41 1.8041e-39 4.0155e-38 8.84698e-37 1.92852e-35 4.15733e-34 8.85789e-33 
-8.23135e-31 -7.20486e-30 -6.10919e-29 -4.9821e-28 -3.90319e-27 -2.93394e-26 -2.11311e-25 -1.45614e-24 -9.58557e-24 -6.01781e-23 
-3.5964e-22 -2.0419e-21 -1.09892e-20 -5.59215e-20 -2.68313e-19 -1.2099e-18 -5.10834e-18 -2.01064e-17 -7.33978e-17 -2.46983e-16 
-7.60488e-16 -2.12355e-15 -5.31796e-15 -1.17763e-14 -2.26368e-14 -3.6823e-14 -4.88243e-14 -4.95938e-14 -3.4002e-14 -1.01849e-14 
4.18954e-15 2.52804e-15 -2.02861e-15 -7.88881e-17 9.11534e-16 -6.31361e-16 2.48586e-16 -7.28803e-17 2.00269e-17 -6.06387e-18 
1.91275e-18 -5.52087e-19 1.37413e-19 -2.92793e-20 5.39572e-21 -8.71678e-22 1.25007e-22 -1.60859e-23 1.87401e-24 -1.99131e-25 
1.94192e-26 -1.74702e-27 1.45626e-28 -1.1289e-29 8.16411e-31 -5.52286e-32 3.50275e-33 -2.08684e-34 1.16983e-35 -6.17889e-37 
3.07865e-38 -1.44839e-39 6.43897e-41 -2.7065e-42 1.07607e-43 -4.04782e-45 1.44076e-46 -4.85202e-48 1.54571e-49 -4.65664e-51 
1.32644e-52 -3.58132e-54 9.41904e-56 -2.97164e-57 2.105e-58 -3.07355e-59 5.02213e-60 -8.0599e-61 -6.71187e-61 -1.96834e-59 
-4.91694e-58 -1.22111e-56 -3.0122e-55 -7.3793e-54 -1.79502e-52 -4.33468e-51 -1.03893e-49 -2.47092e-48 -5.82992e-47 -1.36421e-45 
-3.16509e-44 -7.27852e-43 -1.65846e-41 -3.74296e-40 -8.36376e-39 -1.84963e-37 -4.04636e-36 -8.75249e-35 -1.87093e-33 -3.94996e-32 
3.43584e-30 3.10503e-29 2.71677e-28 2.28616e-27 1.84811e-26 1.43341e-25 1.06525e-24 7.57435e-24 5.14509e-23 3.33332e-22 
2.056e-21 1.20498e-20 6.69603e-20 3.51952e-19 1.74502e-18 8.13607e-18 3.5544e-17 1.44886e-16 5.48325e-16 1.91523e-15 
6.13003e-15 1.78221e-14 4.65571e-14 1.07784e-13 2.1719e-13 3.71675e-13 5.21143e-13 5.64936e-13 4.22545e-13 1.54235e-13 
-3.74807e-14 -3.61857e-14 2.35644e-14 3.50115e-15 -1.32015e-14 8.53373e-15 -3.18137e-15 9.01959e-16 -2.60291e-16 8.88102e-17 
-3.07309e-17 9.28741e-18 -2.35818e-18 5.06736e-19 -9.37336e-20 1.51729e-20 -2.17939e-21 2.80948e-22 -3.28061e-23 3.49631e-24 
-3.42225e-25 3.09258e-26 -2.59141e-27 2.02098e-28 -1.47148e-29 1.00293e-30 -6.41341e-32 3.85523e-33 -2.18206e-34 1.16448e-35 
-5.86619e-37 2.79219e-38 -1.25671e-39 5.3515e-41 -2.15702e-42 8.23152e-44 -2.97438e-45 1.0176e-46 -3.29551e-48 1.00984e-49 
-2.92544e-51 7.98314e-53 -1.99836e-54 3.52246e-56 1.69322e-57 -4.58092e-58 7.41057e-59 -1.03778e-59 4.86931e-60 8.84695e-59 
2.21985e-57 5.52066e-56 1.36306e-54 3.34056e-53 8.12494e-52 1.96079e-50 4.69411e-49 1.11451e-47 2.62368e-46 6.12225e-45 
1.41564e-43 3.2426e-42 7.35494e-41 1.65138e-39 3.66873e-38 8.06113e-37 1.75097e-35 3.75782e-34 7.96396e-33 1.66568e-31 
-1.352e-29 -1.26209e-28 -1.14003e-27 -9.90348e-27 -8.26429e-26 -6.61637e-25 -5.07516e-24 -3.72459e-23 -2.61125e-22 -1.74605e-21 
-1.11159e-20 -6.72495e-20 -3.85818e-19 -2.09421e-18 -1.07268e-17 -5.16938e-17 -2.33579e-16 -9.85612e-16 -3.86526e-15 -1.40076e-14 
-4.65842e-14 -1.40962e-13 -3.84007e-13 -9.29186e-13 -1.9623e-12 -3.53167e-12 -5.23385e-12 -6.04721e-12 -4.91304e-12 -2.11151e-12 
2.45514e-13 4.65699e-13 -2.51573e-13 -7.23917e-14 1.78586e-13 -1.08276e-13 3.79792e-14 -1.0434e-14 3.28084e-15 -1.28719e-15 
4.82479e-16 -1.50529e-16 3.86535e-17 -8.33537e-18 1.54316e-18 -2.49849e-19 3.59029e-20 -4.63301e-21 5.41962e-22 -5.79122e-23 
5.68851e-24 -5.1632e-25 4.34938e-26 -3.41285e-27 2.50228e-28 -1.71882e-29 1.10858e-30 -6.72632e-32 3.84555e-33 -2.07445e-34 
1.05708e-35 -5.09306e-37 2.32192e-38 -1.00224e-39 4.09767e-41 -1.58731e-42 5.82636e-44 -2.02641e-45 6.67673e-47 -2.08336e-48 
6.15511e-50 -1.72527e-51 4.68059e-53 -1.40356e-54 7.30017e-56 -7.71852e-57 1.0013e-57 -1.24137e-58 -1.214e-60 -3.76855e-58 
-9.4284e-57 -2.34907e-55 -5.80732e-54 -1.42431e-52 -3.46494e-51 -8.35911e-50 -1.99939e-48 -4.74021e-47 -1.11364e-45 -2.59185e-44 
-5.97389e-43 -1.36313e-41 -3.07813e-40 -6.87598e-39 -1.51876e-37 -3.31551e-36 -7.14982e-35 -1.52224e-33 -3.19781e-32 -6.624e-31 
4.99926e-29 4.82331e-28 4.50036e-27 4.03799e-26 3.4801e-25 2.87723e-24 2.27893e-23 1.72681e-22 1.24986e-21 8.6275e-21 
5.66982e-20 3.54087e-19 2.09714e-18 1.17532e-17 6.21742e-17 3.09573e-16 1.44609e-15 6.31307e-15 2.56402e-14 9.63498e-14 
3.3275e-13 1.04744e-12 2.97438e-12 7.51983e-12 1.66391e-11 3.14856e-11 4.92951e-11 6.0641e-11 5.3332e-11 2.63836e-11 
-3.29997e-13 -5.40785e-12 2.45061e-12 1.16363e-12 -2.25662e-12 1.28533e-12 -4.20088e-13 1.12492e-13 -4.04927e-14 1.8387e-14 
-7.32538e-15 2.32891e-15 -6.00648e-16 1.295e-16 -2.39429e-17 3.87194e-18 -5.56098e-19 7.17849e-20 -8.40825e-21 9.00555e-22 
-8.8753e-23 8.0907e-24 -6.85184e-25 5.41038e-26 -3.99561e-27 2.76694e-28 -1.80067e-29 1.1033e-30 -6.37479e-32 3.47798e-33 
-1.79376e-34 8.75336e-36 -4.0447e-37 1.77074e-38 -7.34798e-40 2.89102e-41 -1.07861e-42 3.816e-44 -1.27998e-45 4.06905e-47 
-1.2249e-48 3.48032e-50 -9.16029e-52 1.95561e-53 9.88817e-56 -7.83368e-56 1.05656e-56 -1.07993e-57 1.4119e-58 1.49008e-57 
3.75681e-56 9.38087e-55 2.32298e-53 5.70369e-52 1.38831e-50 3.34919e-49 8.00597e-48 1.89581e-46 4.4459e-45 1.03222e-43 
2.37188e-42 5.39215e-41 1.21229e-39 2.69431e-38 5.91672e-37 1.28319e-35 2.74688e-34 5.80057e-33 1.20754e-31 2.47643e-30 
-1.73077e-28 -1.72694e-27 -1.66546e-26 -1.54442e-25 -1.37547e-24 -1.175e-23 -9.61478e-23 -7.52543e-22 -5.62549e-21 -4.00987e-20 
-2.72083e-19 -1.75421e-18 -1.07255e-17 -6.2054e-17 -3.38927e-16 -1.74285e-15 -8.41177e-15 -3.79685e-14 -1.59587e-13 -6.21363e-13 
-2.22681e-12 -7.28704e-12 -2.15574e-11 -5.69189e-11 -1.31911e-10 -2.62362e-10 -4.33781e-10 -5.67654e-10 -5.38932e-10 -3.02095e-10 
-2.34847e-11 5.65283e-11 -2.15682e-11 -1.60186e-11 2.66086e-11 -1.42149e-11 4.26593e-12 -1.12884e-12 4.93593e-13 -2.56497e-13 
1.06384e-13 -3.40994e-14 8.78729e-15 -1.88882e-15 3.48141e-16 -5.61638e-17 8.05459e-18 -1.03934e-18 1.21829e-19 -1.30731e-20 
1.29235e-21 -1.18307e-22 1.00729e-23 -8.00527e-25 5.95651e-26 -4.16014e-27 2.73311e-28 -1.6921e-29 9.88722e-31 -5.4596e-32 
2.85201e-33 -1.41069e-34 6.61178e-36 -2.93804e-37 1.23834e-38 -4.95213e-40 1.87925e-41 -6.76752e-43 2.31246e-44 -7.49593e-46 
2.30486e-47 -6.73341e-49 1.89206e-50 -5.45779e-52 2.0145e-53 -1.18148e-54 8.11234e-56 -2.61082e-57 -8.86181e-58 -5.34428e-57 
-1.4003e-55 -3.50485e-54 -8.69702e-53 -2.13858e-51 -5.21008e-50 -1.25727e-48 -3.00444e-47 -7.1078e-46 -1.66423e-44 -3.85526e-43 
-8.83299e-42 -2.00082e-40 -4.47889e-39 -9.90383e-38 -2.16217e-36 -4.65797e-35 -9.89627e-34 -2.07221e-32 -4.27346e-31 -8.67305e-30 
5.58677e-28 5.76918e-27 5.75498e-26 5.51942e-25 5.08323e-24 4.48968e-23 3.79773e-22 3.07212e-21 2.37298e-20 1.7474e-19 
1.22459e-18 8.15271e-18 5.14618e-17 3.07347e-16 1.73276e-15 9.19829e-15 4.5843e-14 2.13783e-13 9.29092e-13 3.74464e-12 
1.39123e-11 4.72855e-11 1.45614e-10 4.01266e-10 9.73532e-10 2.03446e-09 3.55091e-09 4.93966e-09 5.05154e-09 3.17215e-09 
5.07077e-10 -5.27723e-10 1.69163e-10 1.95431e-10 -2.92206e-10 1.45673e-10 -3.92505e-11 1.0571e-11 -5.96217e-12 3.45118e-12 
-1.46234e-12 4.6874e-13 -1.2022e-13 2.5704e-14 -4.71544e-15 7.57903e-16 -1.08415e-16 1.39708e-17 -1.63753e-18 1.75939e-19 
-1.74377e-20 1.60264e-21 -1.37174e-22 1.09736e-23 -8.22936e-25 5.7996e-26 -3.84897e-27 2.40967e-28 -1.42516e-29 7.97241e-31 
-4.2225e-32 2.11916e-33 -1.00849e-34 4.55326e-36 -1.95119e-37 7.93835e-39 -3.06682e-40 1.12511e-41 -3.91932e-43 1.29604e-44 
-4.06543e-46 1.20682e-47 -3.35718e-49 8.39977e-51 -1.6125e-52 2.07886e-54 -5.84568e-55 1.80909e-55 -3.509e-56 2.48606e-56 
4.85347e-55 1.22083e-53 3.0369e-52 7.48168e-51 1.82499e-49 4.40669e-48 1.05302e-46 2.48948e-45 5.8209e-44 1.34565e-42 
3.0745e-41 6.93963e-40 1.54677e-38 3.40279e-37 7.38466e-36 1.58002e-34 3.33083e-33 6.91354e-32 1.41179e-30 2.83396e-29 
-1.67324e-27 -1.78975e-26 -1.84824e-25 -1.8348e-24 -1.7488e-23 -1.59823e-22 -1.39856e-21 -1.17009e-20 -9.34498e-20 -7.11293e-19 
-5.15084e-18 -3.54221e-17 -2.30885e-16 -1.42347e-15 -8.2825e-15 -4.53712e-14 -2.33356e-13 -1.12335e-12 -5.04273e-12 -2.10141e-11 
-8.0837e-11 -2.85015e-10 -9.12628e-10 -2.62236e-09 -6.65588e-09 -1.46075e-08 -2.69045e-08 -3.9763e-08 -4.37257e-08 -3.05023e-08 
-7.23549e-09 4.33275e-09 -1.15862e-09 -2.14433e-09 2.97999e-09 -1.37377e-09 3.20527e-10 -9.33415e-11 7.09915e-11 -4.4188e-11 
1.8841e-11 -6.00297e-12 1.52754e-12 -3.24175e-13 5.90868e-14 -9.44643e-15 1.34576e-15 -1.72941e-16 2.02434e-17 -2.17536e-18 
2.15982e-19 -1.99173e-20 1.71334e-21 -1.37974e-22 1.04319e-23 -7.42305e-25 4.98085e-26 -3.15665e-27 1.89202e-28 -1.07368e-29 
5.77376e-31 -2.94442e-32 1.42482e-33 -6.54554e-35 2.85576e-36 -1.1836e-37 4.66087e-39 -1.74397e-40 6.20022e-42 -2.09422e-43 
6.72024e-45 -2.0504e-46 5.96825e-48 -1.66173e-49 4.04371e-51 2.98055e-53 -2.91289e-53 5.48903e-54 -8.26915e-55 4.78132e-56 
-1.58006e-54 -3.94866e-53 -9.85164e-52 -2.43255e-50 -5.94327e-49 -1.43643e-47 -3.43338e-46 -8.11334e-45 -1.89484e-43 -4.37203e-42 
-9.9622e-41 -2.24078e-39 -4.9729e-38 -1.08832e-36 -2.34742e-35 -4.98703e-34 -1.04281e-32 -2.14461e-31 -4.33415e-30 -8.59924e-29 
4.62337e-27 5.12733e-26 5.48679e-25 5.64338e-24 5.57192e-23 5.27384e-22 4.77839e-21 4.13822e-20 3.42e-19 2.69271e-18 
2.01621e-17 1.43301e-16 9.64903e-16 6.14236e-15 3.6885e-14 2.0845e-13 1.10578e-12 5.49019e-12 2.54269e-11 1.09399e-10 
4.35051e-10 1.58863e-09 5.28119e-09 1.58027e-08 4.19181e-08 9.65494e-08 1.8757e-07 2.94385e-07 3.47646e-07 2.67715e-07 
8.35627e-08 -3.03786e-08 6.70702e-09 2.12906e-08 -2.81132e-08 1.18144e-08 -2.23822e-09 7.9493e-10 -8.21977e-10 5.31346e-10 
-2.25427e-10 7.10632e-11 -1.78906e-11 3.75969e-12 -6.79285e-13 1.0777e-13 -1.5254e-14 1.95029e-15 -2.27479e-16 2.44009e-17 
-2.42297e-18 2.23928e-19 -1.93461e-20 1.568e-21 -1.19567e-22 8.5974e-24 -5.83983e-25 3.75252e-26 -2.2836e-27 1.31728e-28 
-7.20785e-30 3.74328e-31 -1.84595e-32 8.64716e-34 -3.84895e-35 1.62826e-36 -6.54764e-38 2.50295e-39 -9.09517e-41 3.14114e-42 
-1.03061e-43 3.20995e-45 -9.50115e-47 2.74651e-48 -9.49304e-50 6.62224e-51 -8.38474e-52 1.1523e-52 -1.47757e-53 1.92959e-54 
4.47477e-54 1.18092e-52 2.9556e-51 7.31744e-50 1.79136e-48 4.33504e-47 1.03673e-45 2.44934e-44 5.71471e-43 1.31621e-41 
2.9913e-40 6.70485e-39 1.48146e-37 3.22486e-36 6.91171e-35 1.45751e-33 3.02173e-32 6.15389e-31 1.22994e-29 2.40986e-28 
-1.17064e-26 -1.34753e-25 -1.49593e-24 -1.5959e-23 -1.63402e-22 -1.60349e-21 -1.5059e-20 -1.35134e-19 -1.15681e-18 -9.43041e-18 
-7.3075e-17 -5.37205e-16 -3.73907e-15 -2.45876e-14 -1.52416e-13 -8.88562e-13 -4.85961e-12 -2.48649e-11 -1.18662e-10 -5.26263e-10 
-2.15926e-09 -8.14869e-09 -2.80652e-08 -8.7286e-08 -2.41614e-07 -5.83446e-07 -1.19487e-06 -1.99065e-06 -2.52217e-06 -2.13417e-06 
-8.24581e-07 1.70366e-07 -3.08811e-08 -1.91573e-07 2.44116e-07 -9.15251e-08 1.22694e-08 -6.75554e-09 9.08418e-09 -5.92667e-09 
2.48164e-09 -7.71023e-10 1.91458e-10 -3.97181e-11 7.08911e-12 -1.11191e-12 1.55738e-13 -1.97279e-14 2.28346e-15 -2.43562e-16 
2.41081e-17 -2.22711e-18 1.92909e-19 -1.57247e-20 1.20961e-21 -8.79943e-23 6.06263e-24 -3.96032e-25 2.45462e-26 -1.44427e-27 
8.0703e-29 -4.28381e-30 2.16059e-31 -1.03562e-32 4.7184e-34 -2.04368e-35 8.41599e-37 -3.29533e-38 1.22688e-39 -4.34312e-41 
1.46161e-42 -4.67117e-44 1.4053e-45 -3.73028e-47 4.32919e-49 8.01746e-50 -1.46106e-50 1.92831e-51 -2.26285e-52 2.39869e-53 
-1.5246e-53 -3.24433e-52 -8.15806e-51 -2.026e-49 -4.97143e-48 -1.20499e-46 -2.88408e-45 -6.8139e-44 -1.58848e-42 -3.65242e-41 
-8.27918e-40 -1.84919e-38 -4.06737e-37 -8.80471e-36 -1.8745e-34 -3.92187e-33 -8.05687e-32 -1.62365e-30 -3.20632e-29 -6.19703e-28 
2.69401e-26 3.22304e-25 3.71662e-24 4.11785e-23 4.37785e-22 4.45971e-21 4.34661e-20 4.04666e-19 3.59256e-18 3.03589e-17 
2.4373e-16 1.85521e-15 1.33603e-14 9.08261e-14 5.81525e-13 3.49819e-12 1.97218e-11 1.03928e-10 5.10463e-10 2.32946e-09 
9.83851e-09 3.82679e-08 1.36156e-07 4.38948e-07 1.26506e-06 3.19759e-06 6.89692e-06 1.21917e-05 1.65631e-05 1.53488e-05 
7.08198e-06 -6.15755e-07 9.74672e-08 1.55943e-06 -1.93868e-06 6.27539e-07 -3.7721e-08 5.89694e-08 -9.39505e-08 6.05959e-08 
-2.48899e-08 7.59193e-09 -1.85208e-09 3.7751e-10 -6.61916e-11 1.01966e-11 -1.40272e-12 1.74614e-13 -1.98866e-14 2.09166e-15 
-2.04797e-16 1.87912e-17 -1.62448e-18 1.32855e-19 -1.03083e-20 7.60196e-22 -5.33326e-23 3.56059e-24 -2.26191e-25 1.3669e-26 
-7.85531e-28 4.29178e-29 -2.22879e-30 1.10006e-31 -5.16014e-33 2.3005e-34 -9.74824e-36 3.92648e-37 -1.5034e-38 5.47207e-40 
-1.89391e-41 6.2486e-43 -1.99713e-44 6.71095e-46 -3.08279e-47 2.44548e-48 -2.62842e-49 2.92447e-50 -3.09885e-51 3.09629e-52 
3.08937e-54 8.18597e-52 2.05926e-50 5.13205e-49 1.26274e-47 3.06651e-46 7.34739e-45 1.73625e-43 4.04479e-42 9.28506e-41 
2.09921e-39 4.67156e-38 1.02267e-36 2.20076e-35 4.65204e-34 9.65099e-33 1.9631e-31 3.91095e-30 7.62186e-29 1.451e-27 
-5.57833e-26 -6.94698e-25 -8.33405e-24 -9.60432e-23 -1.06181e-21 -1.12454e-20 -1.13913e-19 -1.10188e-18 -1.01598e-17 -8.91271e-17 
-7.42392e-16 -5.85908e-15 -4.37137e-14 -3.07586e-13 -2.03611e-12 -1.26475e-11 -7.3525e-11 -3.98955e-10 -2.01499e-09 -9.44543e-09 
-4.09596e-08 -1.63658e-07 -5.99239e-07 -1.99473e-06 -5.96496e-06 -1.57409e-05 -3.57038e-05 -6.69275e-05 -9.74681e-05 -9.87049e-05 
-5.31676e-05 -6.82841e-07 -9.23839e-08 -1.14304e-05 1.39689e-05 -3.70387e-06 -1.76471e-07 -5.27116e-07 8.92288e-07 -5.61068e-07 
2.24899e-07 -6.70261e-08 1.59687e-08 -3.1733e-09 5.41095e-10 -8.08255e-11 1.07502e-11 -1.29071e-12 1.41602e-13 -1.4356e-14 
1.35931e-15 -1.21383e-16 1.03087e-17 -8.37986e-19 6.5456e-20 -4.91925e-21 3.55394e-22 -2.46269e-23 1.6323e-24 -1.03212e-25 
6.2122e-27 -3.55353e-28 1.92986e-29 -9.94481e-31 4.86162e-32 -2.2547e-33 9.92187e-35 -4.14383e-36 1.64294e-37 -6.18429e-39 
2.20833e-40 -7.44048e-42 2.29851e-43 -5.5198e-45 -4.38591e-47 2.62317e-47 -3.50871e-48 3.82743e-49 -3.79634e-50 3.50932e-51 
-3.7829e-52 -1.83659e-51 -4.72067e-50 -1.18104e-48 -2.91493e-47 -7.09449e-46 -1.70208e-44 -4.02365e-43 -9.36789e-42 -2.14694e-40 
-4.84075e-39 -1.07311e-37 -2.3373e-36 -4.99787e-35 -1.04829e-33 -2.15465e-32 -4.33507e-31 -8.52695e-30 -1.63737e-28 -3.0643e-27 
1.02607e-25 1.33267e-24 1.66637e-23 2.00108e-22 2.30471e-21 2.54213e-20 2.68116e-19 2.69936e-18 2.58952e-17 2.36238e-16 
2.0452e-15 1.6765e-14 1.29808e-13 9.46939e-13 6.49075e-12 4.16868e-11 2.50137e-10 1.39818e-09 7.25931e-09 3.49085e-08 
1.55034e-07 6.33917e-07 2.37697e-06 8.12522e-06 2.50777e-05 6.87985e-05 0.000163669 0.000325012 0.000507381 0.000560958 
0.000347627 3.53247e-05 -8.17623e-07 7.48527e-05 -9.04067e-05 1.78795e-05 4.12392e-06 4.63473e-06 -7.64451e-06 4.64244e-06 
-1.80598e-06 5.22265e-07 -1.20316e-07 2.29778e-08 -3.73259e-09 5.25011e-10 -6.47796e-11 7.08279e-12 -6.92223e-13 6.10268e-14 
-4.91328e-15 3.68499e-16 -2.66004e-17 1.93349e-18 -1.4742e-19 1.18895e-20 -9.85198e-22 8.05194e-23 -6.29588e-24 4.63336e-25 
-3.18817e-26 2.04816e-27 -1.22962e-28 6.9115e-30 -3.645e-31 1.80736e-32 -8.44179e-34 3.7204e-35 -1.54937e-36 6.10707e-38 
-2.28553e-39 8.20671e-41 -2.94073e-42 1.18831e-43 -6.65624e-45 5.33077e-46 -4.99132e-47 4.70875e-48 -4.25431e-49 3.64022e-50 
-2.79966e-51 4.0502e-51 9.74403e-50 2.44896e-48 6.06513e-47 1.47986e-45 3.55583e-44 8.41001e-43 1.95688e-41 4.47712e-40 
1.00652e-38 2.22193e-37 4.81264e-36 1.02187e-34 2.12488e-33 4.32227e-32 8.58952e-31 1.66518e-29 3.14369e-28 5.76803e-27 
-1.64845e-25 -2.23844e-24 -2.92425e-23 -3.66767e-22 -4.41051e-21 -5.07781e-20 -5.58813e-19 -5.86832e-18 -5.86962e-17 -5.58056e-16 
-5.03229e-15 -4.29384e-14 -3.45785e-13 -2.62089e-12 -1.8642e-11 -1.24046e-10 -7.69654e-10 -4.43794e-09 -2.37024e-08 -1.16881e-07 
-5.30606e-07 -2.21176e-06 -8.44338e-06 -2.94175e-05 -9.29616e-05 -0.000263261 -0.000653711 -0.00137239 -0.00229702 -0.00277349 
-0.0019598 -0.000361886 1.49955e-06 -0.000432695 0.000518941 -6.21674e-05 -4.08958e-05 -3.79745e-05 5.80253e-05 -3.37892e-05 
1.26636e-05 -3.51328e-06 7.68303e-07 -1.36778e-07 2.00982e-08 -2.42681e-09 2.3203e-10 -1.51588e-11 8.40547e-14 1.65559e-13 
-3.2581e-14 4.33507e-15 -4.69582e-16 4.38442e-17 -3.61547e-18 2.6615e-19 -1.75296e-20 1.02651e-21 -5.23751e-23 2.20477e-24 
-6.30307e-26 -3.99364e-28 2.35187e-28 -2.27833e-29 1.61639e-30 -9.74304e-32 5.24327e-33 -2.57776e-34 1.17223e-35 -4.96358e-37 
1.95789e-38 -7.08932e-40 2.19113e-41 -3.58409e-43 -2.97084e-44 5.07536e-45 -5.42388e-46 5.01423e-47 -4.26734e-48 3.40731e-49 
-2.59979e-50 -5.15567e-51 -1.79587e-49 -4.53116e-48 -1.12645e-46 -2.75606e-45 -6.63338e-44 -1.56973e-42 -3.65014e-41 -8.33504e-40 
-1.8677e-38 -4.10356e-37 -8.83229e-36 -1.86038e-34 -3.83038e-33 -7.69862e-32 -1.50815e-30 -2.87443e-29 -5.31876e-28 -9.53028e-27 
2.25936e-25 3.21854e-24 4.40707e-23 5.79087e-22 7.29241e-21 8.78836e-20 1.01198e-18 1.1115e-17 1.16228e-16 1.15473e-15 
1.08752e-14 9.68521e-14 8.13442e-13 6.42407e-12 4.75518e-11 3.28767e-10 2.11523e-09 1.26146e-08 6.94511e-08 3.51608e-07 
1.63093e-06 6.91075e-06 2.66973e-05 9.39137e-05 0.000300265 0.000867324 0.00222754 0.00492222 0.00883346 0.0116725 
0.00936782 0.00248963 4.33896e-05 0.00216868 -0.0025995 7.5873e-05 0.000288869 0.000276376 -0.000382477 0.000212018 
-7.56754e-05 1.97225e-05 -3.93337e-06 6.00615e-07 -6.49976e-08 2.9158e-09 7.01977e-10 -2.39484e-10 4.59414e-11 -6.8741e-12 
8.71999e-13 -9.72016e-14 9.70808e-15 -8.7923e-16 7.27811e-17 -5.53609e-18 3.88297e-19 -2.51606e-20 1.50662e-21 -8.32349e-23 
4.22414e-24 -1.95169e-25 8.06242e-27 -2.85977e-28 7.74957e-30 -7.51403e-32 -9.0423e-33 8.90252e-34 -5.57303e-35 2.89048e-36 
-1.34476e-37 5.94361e-39 -2.71518e-40 1.44846e-41 -9.68622e-43 7.59692e-44 -6.25346e-45 5.05802e-46 -3.91962e-47 2.89001e-48 