# vtk DataFile Version 2.0
Titre
ASCII
DATASET STRUCTURED_POINTS
DIMENSIONS 100 100 1
ORIGIN 0.0 0.0 0.0
SPACING 0.1 0.1 0.0
POINT_DATA 10000 
SCALARS rho float
LOOKUP_TABLE default
0.00300548 0.00059965 0.00104792 -0.00127265 -0.00267325 -0.00739605 -0.00660388 -0.00365755 0.00519794 0.00628346 
0.00554881 -0.00205121 -0.00114715 -0.00131634 0.000297389 -0.00174709 0.000630022 0.00249159 0.000788521 -0.00227549 
-0.000846716 0.00207315 0.00114929 -0.000860823 -0.000277575 0.000806095 0.000404086 -7.03235e-05 3.42972e-05 0.000133367 
0.000224439 5.63836e-05 -8.55914e-05 0.000118791 0.00011212 -9.15348e-05 3.68905e-05 7.34676e-05 -5.55682e-05 1.42481e-05 
3.096e-05 -3.0395e-05 1.17712e-05 6.30883e-06 -1.25075e-05 8.36337e-06 -2.4488e-06 -1.99325e-06 3.04047e-06 -2.33895e-06 
1.07658e-06 -1.01435e-07 -3.50918e-07 4.30688e-07 -3.44518e-07 1.87957e-07 -9.6644e-08 2.18882e-08 1.90911e-08 2.12109e-08 
9.47931e-08 1.40278e-07 2.65901e-07 4.25597e-07 6.56547e-07 1.00014e-06 1.39821e-06 2.01594e-06 2.60863e-06 3.6049e-06 
4.32201e-06 5.79806e-06 6.33198e-06 8.30441e-06 7.76224e-06 9.76493e-06 5.76417e-06 5.37808e-06 -8.13334e-06 -1.89926e-05 
-5.5019e-05 -9.3285e-05 -0.000166223 -0.000236505 -0.000308033 -0.000300451 -0.000141203 0.000307634 0.00110469 0.00228046 
0.00348637 0.00438626 0.00432502 0.00304919 0.00155169 -0.000490182 0.000192408 -4.80038e-05 0.000947879 0.00133353 
-0.00416203 -0.000451043 0.000417596 -0.0010935 -0.00471684 -0.00266244 0.00079439 0.0101347 0.00504131 0.000605955 
-0.00853573 -0.00302988 0.00342818 0.00251714 -0.00111516 -0.00270641 0.00416326 -0.000195711 -0.00295854 -0.00205275 
0.00466865 0.000841344 -0.00252857 -0.000923795 0.00232437 0.000143374 -0.000863382 2.67882e-05 0.000437616 3.26995e-05 
-2.03954e-05 -0.000176683 0.000120995 0.000185534 -0.000212502 -8.7771e-06 0.000184546 -0.000130996 -2.2294e-05 0.000105911 
-7.64346e-05 3.23911e-06 4.16326e-05 -4.08549e-05 1.62073e-05 5.82394e-06 -1.42657e-05 1.16248e-05 -5.0803e-06 -2.02818e-07 
2.59214e-06 -2.71956e-06 1.83647e-06 -8.47653e-07 1.8763e-07 1.68334e-07 -2.08861e-07 2.63316e-07 -6.74712e-08 2.10645e-07 
1.24435e-07 2.55058e-07 2.86104e-07 3.54906e-07 3.87405e-07 3.80977e-07 3.21552e-07 1.68852e-07 -4.51322e-08 -3.87683e-07 
-6.94432e-07 -1.11437e-06 -1.12919e-06 -1.13926e-06 2.68034e-07 2.12464e-06 8.03751e-06 1.61722e-05 3.4896e-05 6.14128e-05 
0.000111314 0.000179116 0.000282174 0.000403131 0.000538512 0.000651176 0.000713167 0.000727886 0.000756651 0.000965749 
0.00156987 0.00260622 0.00390659 0.00478485 0.00462505 0.00374137 0.0022461 0.00243076 0.00120289 -0.00140836 
0.00189809 0.00866646 0.00115567 -0.00473644 -0.00604398 -0.00723515 0.000802402 -0.00132399 -0.00106522 -0.000588283 
0.00221476 0.00985528 -0.00075839 -0.00496826 -0.00771331 0.00478541 0.00292294 -0.00217956 -0.00224939 0.00357328 
0.000539358 -0.00399205 0.000275794 0.00347736 -0.000659946 -0.0023687 0.000967797 0.00113058 -0.000704704 -0.000289123 
0.00024498 7.67831e-05 6.45424e-05 -0.000197862 -2.4921e-05 0.000265484 -0.000182359 -8.21571e-05 0.000211199 -0.000120775 
-3.88971e-05 0.000114202 -8.21223e-05 9.89436e-06 3.77927e-05 -4.32491e-05 2.35837e-05 -1.75092e-06 -1.01851e-05 1.17829e-05 
-7.8832e-06 3.13642e-06 1.23098e-07 -1.52759e-06 1.67791e-06 -1.25665e-06 7.39538e-07 -3.76263e-07 5.69869e-08 -1.20586e-07 
-2.70193e-07 -3.57949e-07 -7.11037e-07 -1.04677e-06 -1.65583e-06 -2.40621e-06 -3.45491e-06 -4.77747e-06 -6.46041e-06 -8.51295e-06 
-1.10085e-05 -1.39587e-05 -1.754e-05 -2.18484e-05 -2.76092e-05 -3.54918e-05 -4.81776e-05 -6.83248e-05 -0.000103394 -0.000159619 
-0.000250167 -0.000379519 -0.000551814 -0.000742288 -0.000900993 -0.000934156 -0.0007102 -0.000118161 0.000920724 0.00230241 
0.00380031 0.005013 0.00553284 0.00515865 0.00392257 0.00236407 0.00158586 0.00228757 0.00525588 0.00662918 
0.00442204 0.00420621 -0.00152552 3.23896e-06 -0.00136454 0.00365376 0.00438158 0.0019449 0.00308802 -0.00420674 
0.000881567 -0.00466855 -0.00456415 -0.00105507 0.00515633 0.00621021 -0.0052951 -0.00331652 0.00077719 0.00245723 
-0.00331216 0.00146715 0.00275712 -0.00194945 -0.0031106 0.0028546 0.0016131 -0.0022641 -0.000544104 0.00148681 
-0.000175063 -0.000529136 0.000100673 0.000139715 0.000119931 -0.000206201 -7.91265e-05 0.000296616 -0.000171189 -0.000102027 
0.000223877 -0.000133372 -2.5482e-05 0.000110781 -9.43173e-05 3.0031e-05 2.2798e-05 -4.05848e-05 3.12881e-05 -1.30039e-05 
-1.3894e-06 7.88929e-06 -8.23343e-06 5.71177e-06 -2.87572e-06 7.87565e-07 2.30441e-07 -7.01178e-07 5.39286e-07 -6.07882e-07 
1.50601e-07 -3.84171e-07 -9.55649e-08 -2.07374e-07 6.16064e-09 2.27317e-07 6.83018e-07 1.33245e-06 2.25657e-06 3.46253e-06 
4.98832e-06 6.87795e-06 9.31152e-06 1.27096e-05 1.81335e-05 2.75707e-05 4.49076e-05 7.60636e-05 0.00013039 0.000218643 
0.000352832 0.000537487 0.000764811 0.00099991 0.00117777 0.00121237 0.00102074 0.000608361 9.24639e-05 -0.000199593 
8.80684e-05 0.00123385 0.0030527 0.00484958 0.00570882 0.00505852 0.00337387 0.00183293 0.0013007 0.00228327 
0.00172347 0.00400131 -0.00140737 -0.00488203 -0.00597851 -0.00340581 -0.00370057 0.00254735 -0.00331693 0.000956495 
0.00614144 0.00268444 0.00243962 -0.00433531 -0.000439384 -0.00504534 -0.000989532 0.00363843 0.00280577 -0.00230486 
-0.00126089 0.00206197 -0.00211896 -0.00140277 0.00348522 0.00108399 -0.00411327 0.000244976 0.00305365 -0.000998772 
-0.001629 0.00106051 0.000469799 -0.000518848 -0.000141596 0.000160287 0.000232248 -0.000248605 -0.000118581 0.00034403 
-0.000195839 -9.68803e-05 0.000238506 -0.000166205 9.04337e-06 9.57075e-05 -0.000105828 5.73278e-05 -2.89168e-06 -2.78683e-05 
3.26392e-05 -2.2743e-05 9.91025e-06 -5.7003e-07 -3.91117e-06 4.81962e-06 -3.88932e-06 2.61146e-06 -1.28669e-06 8.26298e-07 
1.54539e-07 5.89098e-07 1.00236e-06 1.37158e-06 2.20538e-06 3.05924e-06 4.37321e-06 5.92728e-06 7.92831e-06 1.02835e-05 
1.29846e-05 1.57851e-05 1.81794e-05 1.90896e-05 1.64961e-05 6.91842e-06 -1.52419e-05 -5.80538e-05 -0.000132067 -0.000248383 
-0.000415085 -0.000629235 -0.000867567 -0.00107569 -0.00116445 -0.00102452 -0.000554819 0.000266574 0.0013584 0.0024802 
0.00337075 0.00379785 0.0037658 0.00340543 0.00285047 0.00222192 0.00181153 0.0025355 0.00465462 0.00580082 
0.00776409 0.00714212 -0.000776661 -0.00279934 0.00419341 0.00180787 0.00895708 -0.00144506 -0.0070239 0.00146646 
-0.00140767 -0.00211876 -0.0073966 0.000370327 0.00602727 0.00309372 0.00127033 -0.00283214 -0.00357169 -0.00104976 
0.0033695 0.000338966 -0.00130259 0.00176573 -0.00030287 -0.00353005 0.00173067 0.00363549 -0.00278432 -0.00225698 
0.0028542 0.000549475 -0.00190447 0.00032648 0.00080484 -0.000279305 -0.000344158 9.66208e-05 0.000362777 -0.000288541 
-0.000153133 0.000398103 -0.000246919 -6.35507e-05 0.000242031 -0.000208474 6.52039e-05 5.80255e-05 -0.000102494 8.15656e-05 
-3.6182e-05 -1.72191e-06 2.05126e-05 -2.30741e-05 1.72988e-05 -9.70155e-06 3.78505e-06 -2.31068e-07 -1.22221e-06 1.5952e-06 
-1.36966e-06 8.69453e-07 -9.36394e-07 -2.31341e-07 -1.39422e-06 -1.8787e-06 -3.31126e-06 -4.91505e-06 -7.22937e-06 -9.98282e-06 
-1.3171e-05 -1.63219e-05 -1.86605e-05 -1.86654e-05 -1.37964e-05 5.5655e-09 2.87406e-05 8.05028e-05 0.000164884 0.000290758 
0.000461845 0.000669333 0.000883129 0.00104524 0.00107227 0.0008785 0.000417778 -0.00024725 -0.000913831 -0.00123293 
-0.000872586 0.000322472 0.0020833 0.00377924 0.00464612 0.0041687 0.0025016 0.000600558 0.000644843 0.00422537 
0.00534209 -0.00201671 -0.0104002 0.000452601 -0.00141043 0.00283844 0.000908069 -0.00993708 0.00501798 0.00880025 
0.00554338 -0.00170833 -0.00247468 0.00403004 -0.00278199 -0.00543168 -0.00263556 0.00217565 0.00365498 0.00236514 
-0.00112812 -0.00365533 0.000425152 0.00115612 -0.000898171 0.0014271 0.00189073 -0.00382872 -0.00117267 0.00453549 
-0.000409059 -0.00362851 0.00170784 0.00170039 -0.00164279 -0.000316209 0.000864512 5.10502e-06 -0.000469059 7.69868e-06 
0.000482271 -0.000345162 -0.00015345 0.000443554 -0.000326754 1.4043e-05 0.000212496 -0.000242643 0.000137591 -1.01624e-05 
-6.77905e-05 8.45704e-05 -6.31538e-05 3.12097e-05 -5.80685e-06 -8.0437e-06 1.22638e-05 -1.12286e-05 7.95827e-06 -5.21144e-06 
2.41234e-06 -1.81189e-06 -2.22935e-07 -1.2422e-06 -1.49722e-06 -1.98423e-06 -2.66568e-06 -3.30072e-06 -4.15005e-06 -5.08217e-06 
-6.32706e-06 -8.10316e-06 -1.09853e-05 -1.60003e-05 -2.49851e-05 -4.10024e-05 -6.8797e-05 -0.000115056 -0.000187977 -0.000295386 
-0.000440535 -0.000615128 -0.000790658 -0.000911913 -0.000899451 -0.000670489 -0.000178511 0.000532672 0.00130688 0.00189954 
0.00211185 0.00190547 0.00147987 0.00109272 0.000847303 0.000661151 0.000475552 0.0005761 0.00112663 0.00246235 
0.00325959 -0.00653942 0.003116 0.00305863 0.00354709 0.00344974 -0.00774852 -0.00442458 0.00496835 -0.0033594 
-0.00579547 -0.00721792 0.00493318 0.00295718 0.000337845 0.00235058 0.0040454 -0.00145861 -0.00369183 -0.00277767 
-9.89756e-06 0.00226826 0.00329827 -0.00158801 -0.00158994 0.000284864 -0.00111206 0.000381284 0.00374229 -0.00219541 
-0.00386708 0.00373421 0.00199648 -0.00384243 0.00027675 0.00232378 -0.00113427 -0.000779471 0.000779385 0.000263825 
-0.000558395 -6.00347e-05 0.000592124 -0.000445993 -9.07819e-05 0.00045857 -0.000426331 0.000145922 0.000122433 -0.000234977 
0.000200019 -9.91062e-05 6.03098e-06 4.62425e-05 -5.91483e-05 4.88192e-05 -3.1051e-05 1.52932e-05 -4.7454e-06 -5.78113e-07 
2.97078e-06 -2.55606e-06 3.19299e-06 -4.90614e-07 3.20672e-06 2.44462e-06 5.13664e-06 6.46058e-06 9.32699e-06 1.19836e-05 
1.51829e-05 1.81166e-05 2.06987e-05 2.25601e-05 2.4032e-05 2.64763e-05 3.32917e-05 5.07211e-05 8.81749e-05 0.000156935 
0.00026602 0.000414352 0.000580162 0.000712114 0.000730451 0.000549103 0.000121452 -0.000499531 -0.00112905 -0.00147994 
-0.00129481 -0.000498656 0.000686128 0.00181116 0.00236442 0.00195633 0.000592031 -0.00108702 -0.00161097 3.51273e-05 
-0.000597552 0.00229534 0.00102528 -0.000406857 0.00611345 -0.00119121 -0.00199356 0.00789978 0.00413307 0.00303776 
0.000591687 0.00439512 -5.55072e-05 -0.00699437 -0.00332753 0.000346504 -0.00148723 -0.00152129 0.0043095 0.00321273 
-5.4628e-06 -0.00152705 -0.00241111 -0.00224645 0.00292351 0.00219475 -0.000994307 -0.000327047 -0.00146362 -0.00135318 
0.00419483 0.000551465 -0.00526204 0.00181036 0.00372918 -0.00322926 -0.000975807 0.00248562 -0.000585796 -0.00106558 
0.000640657 0.000482294 -0.000658049 -6.91307e-05 0.000682628 -0.000602729 6.61948e-05 0.00039787 -0.000504869 0.000316568 
-4.62906e-05 -0.000141408 0.000199665 -0.000164494 9.4144e-05 -3.06153e-05 -9.11127e-06 2.59923e-05 -2.7695e-05 2.26891e-05 
-1.56482e-05 1.01148e-05 -5.54515e-06 3.40343e-06 -1.38743e-06 1.09214e-06 -1.35289e-07 7.28271e-07 1.06703e-06 2.93259e-06 
6.33136e-06 1.29694e-05 2.4113e-05 4.15493e-05 6.62394e-05 9.76442e-05 0.000131911 0.000160295 0.000168113 0.000136057 
4.56213e-05 -0.000110034 -0.000311195 -0.000498563 -0.000573809 -0.000425779 1.30357e-05 0.000698688 0.00144135 0.00195328 
0.00199513 0.00153389 0.000792765 8.09974e-05 -0.000460242 -0.0009282 -0.00140929 -0.00156356 -0.000976258 -8.53263e-05 
0.00482201 -0.00234059 -0.00832468 0.00468771 0.00373096 -0.00721261 -0.00037414 -0.00494276 -0.00355141 -0.000823083 
-0.0009818 0.00153816 -0.00329595 0.00642102 0.00725779 0.00153029 -0.00469649 0.000991665 -0.000523868 -0.00460366 
-0.00131622 0.00316001 0.00122985 0.001731 0.00077459 -0.00420295 -0.00181394 0.00323916 0.00118945 7.14148e-05 
-0.00129443 -0.00302385 0.0032223 0.00314793 -0.00522111 -0.000335017 0.00459371 -0.00228974 -0.00183575 0.00237309 
-0.000133945 -0.00122315 0.000520792 0.000658984 -0.00081001 2.90998e-05 0.000711223 -0.0007946 0.000338362 0.000196794 
-0.000477097 0.000454266 -0.000261591 5.35021e-05 8.2933e-05 -0.000133867 0.000125369 -9.09771e-05 5.40605e-05 -2.62685e-05 
8.43874e-06 -6.05377e-07 -4.32465e-06 2.16288e-06 -5.98448e-06 -2.15898e-06 -8.68436e-06 -1.04594e-05 -1.84811e-05 -2.78231e-05 
-4.372e-05 -6.65602e-05 -9.99499e-05 -0.000146015 -0.000206388 -0.000279601 -0.000359109 -0.000430817 -0.000472053 -0.000454012 
-0.000350116 -0.000151326 0.000114075 0.000366165 0.000478121 0.000316824 -0.000184013 -0.000943146 -0.00170649 -0.00212712 
-0.00195133 -0.00119587 -0.000170721 0.000711249 0.00113045 0.000796797 -0.000682393 -0.00323163 -0.00465571 -0.00125633 
-0.000900576 -0.0142841 0.00261179 0.0140164 -0.000225769 -0.00223339 0.0020063 -0.00220915 0.00918152 0.00101315 
-0.00040821 -0.00727557 -0.0024075 0.00124305 -0.00653424 -0.00598772 0.00358628 0.00789602 -0.00190596 1.99145e-05 
0.00373291 -0.00108531 -0.00477772 0.000460887 -0.000615251 0.000612911 0.00488527 -0.000579524 -0.00560071 0.000612092 
0.0027049 0.00119391 -0.000420758 -0.00404772 0.00143198 0.00492401 -0.00428909 -0.00208758 0.00479648 -0.00141675 
-0.00230564 0.0021693 0.000173401 -0.0013239 0.000481555 0.000781456 -0.00103851 0.000294964 0.000586088 -0.000932398 
0.000686691 -0.000183185 -0.000235465 0.000418399 -0.000393473 0.000264062 -0.000123167 1.98632e-05 3.59524e-05 -5.4663e-05 
5.26369e-05 -4.09504e-05 3.01894e-05 -1.7424e-05 1.51317e-05 -1.52288e-06 1.39361e-05 1.3906e-05 2.82369e-05 4.23543e-05 
6.81991e-05 0.000103647 0.000155065 0.000223864 0.00031183 0.000415235 0.000523736 0.000616993 0.000664776 0.000631528 
0.000488494 0.000233841 -8.58995e-05 -0.00036313 -0.000447432 -0.000200914 0.000411516 0.00125006 0.00200609 0.00233629 
0.00206926 0.00132934 0.00042662 -0.000420182 -0.00117962 -0.00171599 -0.00169541 -0.0015465 -0.00322742 -0.00616725 
-0.00821594 -0.000653285 0.0151281 0.00663334 -0.00929339 -0.000162404 -0.00365893 0.00424763 0.00481033 -0.00304122 
-0.000173359 0.00257075 0.0119538 0.00189206 -0.00234618 0.00251236 0.00317015 -0.00840755 -0.00739313 0.00513609 
0.00167848 -0.00350437 0.00290709 0.00445725 -0.00277023 -0.000318709 -0.00137643 -0.0040851 0.00447622 0.00540807 
-0.005256 -0.00326157 0.00249216 0.00221616 0.000825896 -0.00421905 -0.000490131 0.00579448 -0.00310005 -0.0032245 
0.00465455 -0.000819704 -0.00247158 0.0019888 0.000342239 -0.00143528 0.000589827 0.000790566 -0.00131096 0.000767052 
0.000176252 -0.000826456 0.000933627 -0.000644311 0.000236355 8.59159e-05 -0.000250691 0.000281251 -0.000235471 0.000165154 
-0.000100872 5.41061e-05 -2.56758e-05 8.98082e-06 -4.37882e-06 -3.85014e-06 -6.38404e-06 -1.39347e-05 -2.31769e-05 -4.04027e-05 
-6.63798e-05 -0.000105495 -0.000161602 -0.000237221 -0.000332837 -0.000442658 -0.000552768 -0.000638141 -0.000664412 -0.00059483 
-0.000406696 -0.000112326 0.000218307 0.000457634 0.000448527 8.10869e-05 -0.000622325 -0.00145452 -0.00208344 -0.00222062 
-0.00180717 -0.00104077 -0.000192885 0.000558731 0.000951934 0.000350482 -0.00163832 -0.00361866 -0.00322005 -0.00275499 
0.00142062 0.00700305 0.00590702 -0.00888277 -0.0042538 0.000663911 -0.00113456 0.00361646 -0.00553021 -0.00505586 
-0.00364458 0.000670232 -0.00400232 -0.0103793 0.00107792 0.00716015 0.00135514 -0.00127394 0.00925903 0.0031934 
-0.00925216 -0.00155718 0.00478498 -0.00423431 -0.00292482 0.00511243 0.000369704 0.000880825 0.00165901 -0.00738985 
-0.00093344 0.00937202 -0.00142667 -0.00605692 0.00103284 0.00267189 0.00195639 -0.003755 -0.00204201 0.0060051 
-0.00211903 -0.00376194 0.0044174 -0.000561694 -0.00242414 0.00188704 0.000386895 -0.00160149 0.000929506 0.000541607 
-0.0014638 0.00135701 -0.000583026 -0.000247586 0.000742996 -0.000837777 0.000667207 -0.000405639 0.000173159 -1.84582e-05 
-6.02296e-05 8.47758e-05 -8.04071e-05 6.38482e-05 -4.56575e-05 3.19347e-05 -1.63614e-05 1.89599e-05 7.73047e-06 3.14508e-05 
4.72006e-05 8.38235e-05 0.000131549 0.000199328 0.000283052 0.000376801 0.000463786 0.000517682 0.00050445 0.000393481 
0.000172916 -0.000124905 -0.000414943 -0.000560761 -0.000428777 4.32611e-05 0.000766161 0.00149927 0.00194724 0.00193489 
0.0015113 0.000864392 0.000116442 -0.000691914 -0.00131188 -0.00128608 -0.000914462 -0.00179157 -0.00393837 -0.00278596 
-0.00173159 -0.00437748 -0.0066765 -0.00103047 0.00655805 -0.000906694 0.00304649 -0.000940846 0.00197671 0.00352171 
0.00570691 0.00381498 -0.0024116 0.00135439 0.00564194 -0.00605454 -0.0112837 -0.00143345 0.00319764 -0.00651437 
0.00195658 0.0110404 -0.00183617 -0.00648241 0.00604711 0.000664916 -0.00702156 0.00134417 0.000925232 0.000688843 
0.00658595 -0.00587797 -0.00796177 0.00937126 0.0035356 -0.0070277 -0.000711832 0.00260398 0.00268494 -0.00305169 
-0.00300924 0.00588384 -0.00159046 -0.00378928 0.0041966 -0.000605787 -0.0022396 0.00190003 0.00027755 -0.00179524 
0.00155822 -0.00018539 -0.00113394 0.00167566 -0.0014259 0.000771389 -0.000114429 -0.000324098 0.000509569 -0.000510492 
0.000418266 -0.000301889 0.000199981 -0.000123811 7.42858e-05 -4.32592e-05 2.42936e-05 -1.80761e-05 1.00468e-06 -2.22048e-05 
-2.91812e-05 -5.92809e-05 -9.35974e-05 -0.000145847 -0.000206795 -0.000271701 -0.000322161 -0.000333805 -0.000278881 -0.000135096 
9.04498e-05 0.000355351 0.00056176 0.000594111 0.000354098 -0.000155782 -0.00080515 -0.00136302 -0.00162487 -0.00153422 
-0.00118829 -0.000688107 -3.63655e-05 0.000662312 0.000889177 4.54796e-05 -0.001488 -0.00247859 -0.00318184 -0.00470158 
-0.00520307 -0.00165982 0.00695907 0.0168976 -0.00204119 -0.00352227 -0.000804495 -0.000623289 0.00458563 -0.00322342 
-0.000380539 -0.00487346 0.000775876 0.00609963 0.0034608 -0.00188841 0.00900732 0.0107315 -0.00364223 -0.00794017 
0.00401306 -0.00415862 -0.00896325 0.00689313 0.00620728 -0.0085265 0.00254133 0.00755948 -0.00535867 -0.0023246 
-0.000283423 -0.00237795 0.00967378 -0.000187797 -0.0131473 0.00626019 0.00769896 -0.00668251 -0.0020496 0.00229818 
0.00296731 -0.00244369 -0.00337849 0.00566115 -0.0015741 -0.00337587 0.00396956 -0.000847024 -0.00199554 0.00209591 
-0.000135192 -0.00179249 0.00231922 -0.00147648 9.81171e-05 0.00101568 -0.00151479 0.00146236 -0.00110638 0.000683608 
-0.000334669 0.000105158 1.65081e-05 -6.41994e-05 6.98982e-05 -5.75065e-05 4.15424e-05 -2.34608e-05 2.02322e-05 4.13972e-06 
2.57839e-05 3.83347e-05 6.48567e-05 9.73406e-05 0.000133931 0.000166401 0.000178009 0.000151037 6.22576e-05 -9.00537e-05 
-0.000295148 -0.000490122 -0.000598411 -0.000523675 -0.000230125 0.000237944 0.000734977 0.00109388 0.00122232 0.00115372 
0.000956754 0.000593123 -3.82485e-05 -0.000781259 -0.00108247 -0.000638223 -0.000241623 -0.0010027 -0.00235728 -0.00309204 
0.000725176 0.0042629 0.0155253 -0.00209423 -0.019757 -0.00149116 -0.00124583 0.00468175 -0.00251541 -0.00622423 
-0.000789294 -0.00226932 0.00203997 -0.00483638 -0.00997677 -0.00542795 0.0024643 -0.00643343 -0.00565634 0.0109233 
0.0105676 -0.00576526 0.00223851 0.00521991 -0.0102796 -0.00284115 0.0102778 -0.00661959 -0.00528102 0.0103541 
0.00014375 -0.00317656 -0.000671836 -0.0068248 0.00906808 0.00682837 -0.0152549 0.00207264 0.0103408 -0.00593016 
-0.00270872 0.00200925 0.00289586 -0.0021151 -0.00320081 0.0053878 -0.00197447 -0.00258077 0.00364798 -0.00116288 
-0.00175448 0.00256939 -0.00115236 -0.00101985 0.00248991 -0.0027163 0.00199107 -0.000918582 -1.45226e-05 0.000592849 
-0.000821474 0.00080963 -0.000677416 0.000512251 -0.000361395 0.000242025 -0.000156877 9.53532e-05 -6.22521e-05 2.60508e-05 
-3.2542e-05 -1.37266e-05 -4.08643e-05 -4.8363e-05 -6.32299e-05 -6.22485e-05 -4.23457e-05 1.78686e-05 0.000115594 0.000259832 
0.000405753 0.000518597 0.000518937 0.000374101 8.27938e-05 -0.000271993 -0.000579667 -0.000760359 -0.000830183 -0.000855604 
-0.000816658 -0.000539078 9.17675e-05 0.000756273 0.000756418 -0.000165272 -0.00120964 -0.00151865 -0.00167046 -0.00204376 
-0.00342924 0.00200676 0.00303697 -0.0224236 -0.00369445 0.0111177 0.00608274 0.00271484 -0.00530448 0.00268046 
0.00607635 0.00454534 0.00349172 -0.000340595 0.00467403 0.0103075 0.0018392 -0.00779325 0.00020163 0.00065408 
-0.014602 -0.00698427 0.0118444 0.000303106 -0.00380163 0.0103244 -0.00193894 -0.00972773 0.0101887 -0.000183599 
-0.0125956 0.00697088 0.00520148 -0.00187227 0.000940782 -0.0103495 0.00550727 0.0127081 -0.0150548 -0.00144142 
0.01161 -0.00548741 -0.00265807 0.0018258 0.00259388 -0.00210521 -0.00251245 0.00492813 -0.00252848 -0.00155738 
0.00323057 -0.0015658 -0.00137858 0.00317487 -0.00290375 0.00119112 0.000779045 -0.00214152 0.00263712 -0.00244978 
0.00191613 -0.00132147 0.000824878 -0.000477312 0.000262232 -0.000144377 8.18332e-05 -5.32327e-05 3.43271e-05 -2.66771e-05 
1.57299e-05 -1.40299e-05 2.05309e-06 -1.56207e-05 -2.57921e-05 -5.58958e-05 -0.000109808 -0.000178606 -0.000283287 -0.000375767 
-0.000458436 -0.000460244 -0.000374774 -0.000184643 5.04163e-05 0.000258199 0.000377685 0.000431871 0.000511858 0.000664317 
0.000750393 0.000493861 -0.000176311 -0.000808808 -0.000746866 -5.98045e-05 0.000189917 -0.000614073 -0.00148567 -0.00242191 
-0.00498267 0.00972743 -0.00406361 -0.00242354 0.0201318 0.00914346 -0.00126872 -0.0068625 0.000152854 0.00515331 
0.000520072 -0.0042385 -0.00429966 -0.00205391 0.00236507 8.66651e-05 -0.00626765 0.00500533 0.0137894 0.00332846 
-0.00129101 0.0114817 -0.00125719 -0.0172363 0.00161506 0.00604168 -0.00900454 0.00541678 0.00712118 -0.0115675 
0.00646892 0.00872348 -0.0149536 6.1267e-05 0.00740395 -0.000369126 0.00385702 -0.0118314 0.000991205 0.0164423 
-0.0140671 -0.00328695 0.0118567 -0.0056549 -0.00193635 0.00167174 0.00215775 -0.00232718 -0.00136244 0.00404747 
-0.00282612 -0.000648663 0.00296768 -0.00242989 -0.000145947 0.00283712 -0.00424021 0.00408147 -0.0028967 0.00142616 
-0.000200684 -0.000565908 0.000899246 -0.000926788 0.000795027 -0.000599754 0.000420957 -0.000258471 0.000167164 -6.57932e-05 
6.87464e-05 2.62662e-05 7.16077e-05 9.93318e-05 0.000141235 0.000212637 0.000273801 0.000374686 0.000433565 0.000494323 
0.00046687 0.000380249 0.000204756 7.24239e-06 -0.000151887 -0.000206009 -0.000171216 -0.000155748 -0.00029016 -0.000562232 
-0.000718817 -0.000438268 0.000250979 0.000768233 0.000500164 -0.000334582 -0.000818228 -0.000723405 -0.000547239 3.39637e-05 
0.00663748 0.00838788 -0.00417385 0.00990594 0.00125465 -0.0138144 -0.0146175 -0.00401421 0.00501341 -0.00312852 
-0.0065842 -0.00484987 0.00101034 0.0013344 -0.00156268 -0.0067577 -0.00622367 0.00203452 -0.00909866 -0.0144953 
0.000676622 0.00831634 -0.00520512 0.00732715 0.0162751 -0.0089522 -0.0084421 0.00970676 -0.00702563 -0.0042027 
0.0110319 -0.00997846 -0.00025866 0.0162649 -0.0117353 -0.00651624 0.0070348 0.000121062 0.00677025 -0.0116416 
-0.0026272 0.0181012 -0.0135285 -0.00304884 0.011137 -0.00624868 -0.000665569 0.00141673 0.00161112 -0.00253099 
1.21701e-05 0.00269848 -0.00259669 -0.000129006 0.00308253 -0.00417468 0.00300247 -0.000535362 -0.0019326 0.00356222 
-0.00415687 0.00394948 -0.00331348 0.00255439 -0.00186488 0.00129874 -0.000892777 0.000568265 -0.000394268 0.000186967 
-0.000191249 -2.31784e-05 -0.000178702 -0.000181128 -0.000301062 -0.000360275 -0.000494458 -0.000547131 -0.000626298 -0.000584071 
-0.00049358 -0.000291043 -6.16191e-05 0.00013825 0.000211774 0.000135966 -8.33254e-06 -4.56461e-05 0.000158358 0.000517308 
0.000690998 0.000363525 -0.0003266 -0.000739419 -0.000402672 0.000256919 0.000315819 -0.000427622 -0.00127537 0.000162304 
0.00492207 -0.00895377 -0.00150644 -0.00265413 -0.0154805 -0.00766703 0.00440094 0.0163561 0.00515564 -0.00430656 
0.00229694 0.00730367 0.0072296 0.00152431 0.000479753 0.00402156 0.00919209 0.00869456 -0.00301065 0.00590144 
0.00816505 -0.00988325 -0.0152742 0.00376487 -0.00568038 -0.00915686 0.0164791 0.00604954 -0.0128654 0.00878822 
0.00158973 -0.0106179 0.0102501 -0.00646957 -0.00826759 0.0197146 -0.0055053 -0.010562 0.00559324 -0.000441988 
0.00882264 -0.0108627 -0.0042009 0.0179537 -0.0138422 -0.000711442 0.00909914 -0.00658164 0.000766189 0.00108074 
0.000823709 -0.0022126 0.000908829 0.00152872 -0.00243034 0.0007807 0.00235971 -0.00518573 0.0065088 -0.00619746 
0.00483762 -0.00317315 0.0017423 -0.000764944 0.000242638 -2.61565e-05 1.38893e-05 -1.65674e-05 0.000108435 -3.08813e-05 
0.000173349 8.35391e-05 0.000245279 0.000299895 0.000404643 0.000570157 0.000636714 0.000779001 0.000756177 0.0007091 
0.000501049 0.000237022 -5.0968e-05 -0.000235331 -0.000238667 -6.54301e-05 0.000142927 0.000171992 -9.36434e-05 -0.000497448 
-0.000649577 -0.000277638 0.000378134 0.000661551 0.000226977 -0.000415061 -0.000480543 -4.91659e-05 -0.000370423 -0.00234907 
-0.00875662 -0.00527555 0.00900539 -0.00577134 0.00292542 0.0149667 0.0172079 0.00704262 -0.0114987 -0.00338701 
0.00686728 0.00293696 -0.00421311 -0.00568298 -0.0010389 0.00145532 -0.00218027 -0.00660803 -0.00501798 0.00996504 
0.00237963 -0.000640789 0.0156076 0.0139122 -0.0110996 -0.00108979 0.00300764 -0.0177972 0.00166661 0.0149314 
-0.0121312 0.00212855 0.0104948 -0.0110715 0.00767144 -0.00181097 -0.0151912 0.0190049 0.000546971 -0.0119042 
0.00432232 -0.00148309 0.00976694 -0.010403 -0.00323862 0.0158035 -0.0142714 0.00307552 0.00544452 -0.00574793 
0.00168001 0.000897275 -0.000387744 -0.000837573 0.000369581 0.00178172 -0.00383487 0.00419261 -0.00258535 -0.000129415 
0.0027987 -0.00463508 0.00539786 -0.00525774 0.00453153 -0.00356633 0.00255441 -0.00173041 0.000999651 -0.00064672 
0.000166246 -0.000282143 -0.000261563 -0.000339495 -0.00058877 -0.00061164 -0.000868572 -0.000867556 -0.000927988 -0.000767975 
-0.000534026 -0.000193166 0.000118684 0.000291801 0.000241516 7.62349e-06 -0.000228444 -0.000236131 7.00201e-05 0.000480014 
0.000590412 0.000190591 -0.000406125 -0.000578219 -0.000126705 0.000351197 0.000187129 -0.000261866 2.41043e-05 -0.00109849 
-0.00523378 0.0169344 0.00793244 -0.00399049 0.00944851 0.00329152 -0.00789093 -0.0210868 -0.0160846 0.00361031 
0.00103868 -0.010581 -0.0094372 -0.00141547 0.00169448 -0.00172048 -0.00594995 -0.00308277 0.00082899 -0.00135251 
-0.0169627 -0.00738179 0.000822269 -0.0112615 -0.00363442 0.0211354 0.00351252 -0.00455427 0.0127902 -0.00949687 
-0.0124435 0.0155888 -0.00742268 -0.00744957 0.0144228 -0.00783644 0.00518957 0.00314333 -0.019398 0.015983 
0.00435359 -0.0113209 0.00367387 -0.00238194 0.00956522 -0.0103718 5.51084e-05 0.0110211 -0.0129132 0.00634975 
0.00106084 -0.00368842 0.00190055 0.000581061 -0.00127413 0.000682443 -0.00070678 0.00240463 -0.00527084 0.00801315 
-0.00961326 0.00981038 -0.00894452 0.00756455 -0.00609125 0.00476568 -0.00359746 0.00266379 -0.00179437 0.00128349 
-0.000638996 0.000666402 -1.29823e-05 0.000637107 0.000428326 0.000859295 0.000831796 0.00103546 0.000960434 0.000836897 
0.00053595 0.000173243 -0.000155429 -0.000314162 -0.000230855 3.16349e-05 0.000270267 0.00025582 -6.58322e-05 -0.000453389 
-0.000518047 -0.000113603 0.000405963 0.000481573 2.92078e-05 -0.000366427 -0.000252508 -4.39991e-05 0.000172895 0.00184099 
0.00943254 0.0140545 -0.0117375 -0.00839716 -0.00227174 -0.0111629 -0.0132188 -0.00416362 0.0150814 0.0179046 
0.000510379 -0.00251169 0.0100864 0.0119318 0.00444379 0.00020877 0.00276211 0.00872135 0.00708525 0.00239772 
0.00325802 0.0162885 0.00257841 -0.0107755 0.00101287 -0.00548902 -0.0227057 0.00439241 0.0115464 -0.00848827 
0.0120674 0.00604411 -0.0169131 0.0118244 3.33486e-05 -0.015195 0.012853 -0.00424827 0.00329426 0.00726024 
-0.0205882 0.0127529 0.00522807 -0.00946572 0.00342359 -0.00270508 0.00797733 -0.00966978 0.0041063 0.00382959 
-0.00787772 0.0060956 -0.0012923 -0.00234168 0.00293725 -0.00174198 0.0009699 -0.00151097 0.00260026 -0.00301101 
0.00218838 -0.000481051 -0.0013146 0.00250193 -0.00280754 0.00234294 -0.0015117 0.000620857 -7.09344e-05 -0.000323609 
0.000157822 -0.000345888 -0.000270384 -0.000354471 -0.000685618 -0.000677048 -0.000974134 -0.000983005 -0.0010067 -0.000828931 
-0.000532001 -0.000158437 0.000167356 0.000312267 0.000214114 -5.24547e-05 -0.00027836 -0.000247994 6.67572e-05 0.000414813 
0.000440268 5.28424e-05 -0.000384518 -0.000391682 2.63757e-05 0.000317534 0.000125815 -0.000273109 -0.000571562 0.00132857 
0.00813907 -0.010606 -0.0171166 -0.000882793 0.00293331 0.0023409 0.0086746 0.0207836 0.017704 -0.00154494 
-0.0117729 0.00193169 0.0100115 -0.00218047 -0.00746195 -0.00161386 0.0028377 0.000703962 -0.00659688 -0.00594659 
0.00107006 0.00297068 -0.00708585 0.00817522 0.0208251 0.00230573 0.00257761 0.0127222 -0.0164262 -0.0139273 
0.0110205 -0.00978235 0.000689508 0.0157145 -0.0137114 0.00683033 0.00794543 -0.0181822 0.00852515 -0.0021679 
0.0020085 0.00954529 -0.0192603 0.0104226 0.00346505 -0.00647488 0.00299059 -0.00233015 0.0047137 -0.00617136 
0.00509894 -0.00217617 -0.000864687 0.001901 -0.000121359 -0.00299021 0.00523059 -0.00588481 0.00598038 -0.00684022 
0.00885545 -0.011429 0.0136125 -0.0146629 0.0142853 -0.0125958 0.0100623 -0.0071836 0.00458155 -0.00236414 
0.00106198 5.26608e-05 1.37677e-05 0.000709904 0.000296353 0.000869515 0.000795756 0.000993363 0.000941726 0.000795506 
0.000505302 0.000145788 -0.000162138 -0.000294909 -0.000195094 5.8124e-05 0.000263648 0.000225814 -6.53987e-05 -0.000366754 
-0.000364432 -1.04484e-05 0.000347458 0.000308666 -6.72959e-05 -0.00028552 -8.64273e-05 0.00016373 -0.000284894 -0.00153122 
-0.00555497 -0.0146458 0.00422586 0.0132709 0.0107005 0.0051657 0.00469978 0.00111969 -0.0183398 -0.025445 
-0.0114151 0.00339227 -0.00598831 -0.0185444 -0.00869962 2.56911e-05 -0.00347624 -0.00772241 -0.00621664 0.00129972 
0.00100216 -0.00865029 -0.0121189 -0.00124851 -0.012128 -0.0182423 0.00826415 0.00963884 -0.00252353 0.0195719 
0.00564179 -0.0177875 0.00787571 -0.00482207 -0.0118049 0.0154849 -0.00844956 0.00197966 0.0136553 -0.0165575 
0.0043782 -0.00187131 0.00146261 0.00948014 -0.0158133 0.00853608 0.000258877 -0.00239737 0.00192255 -0.00192441 
0.000896619 0.000867921 -0.00108768 2.12284e-06 0.000171632 0.00091014 -0.00146822 0.000494684 0.00101241 -0.00151958 
0.000523668 0.00145428 -0.00372373 0.00587784 -0.00766388 0.00877614 -0.00899549 0.00827871 -0.0069815 0.00530223 
-0.00387354 0.00232558 -0.00167963 0.000430218 -0.000823512 -0.000506002 -0.000806487 -0.000868431 -0.00085371 -0.000727709 
-0.000459222 -0.000134913 0.000147594 0.000267661 0.00017582 -5.33323e-05 -0.000235641 -0.00019805 5.93935e-05 0.000313755 