# vtk DataFile Version 2.0
Titre
ASCII
DATASET STRUCTURED_POINTS
DIMENSIONS 100 100 1
ORIGIN 0.0 0.0 0.0
SPACING 0.1 0.1 0.0
POINT_DATA 10000 
SCALARS rho float
LOOKUP_TABLE default
0.00551503 0.0059649 0.0012192 -0.000142397 -0.00678855 -0.00589557 0.000324369 0.00655158 0.0105203 0.00199557 
-0.00503718 -0.00863624 -0.00205729 0.00283856 0.00299233 -0.000910756 -0.0018132 -9.51543e-05 0.0009911 0.000161819 
-0.000290235 0.000169769 0.000265195 -0.000136747 -8.99037e-05 0.000186362 5.72442e-05 -0.000121132 1.09795e-05 8.16061e-05 
-2.81408e-05 -3.1828e-05 3.11088e-05 4.28591e-06 -1.69257e-05 7.43186e-06 4.30816e-06 -5.77781e-06 1.84258e-06 1.40006e-06 
-1.70863e-06 6.79102e-07 1.96645e-07 -4.13732e-07 2.59315e-07 -5.73954e-08 -4.55397e-08 5.99575e-08 -3.71147e-08 1.31679e-08 
1.3336e-10 -4.28204e-09 3.94835e-09 -2.40955e-09 1.13637e-09 -3.96615e-10 7.33911e-11 3.35748e-11 -4.70072e-11 3.67706e-11 
-1.83585e-11 1.79395e-11 9.04423e-12 3.45168e-11 6.69023e-11 1.44747e-10 2.99828e-10 6.21708e-10 1.26405e-09 2.56647e-09 
5.0806e-09 1.00856e-08 1.91982e-08 3.7063e-08 6.64348e-08 1.24091e-07 2.03325e-07 3.68021e-07 5.31661e-07 9.55911e-07 
1.20739e-06 2.35826e-06 3.14386e-06 7.47224e-06 1.44707e-05 3.54708e-05 8.26001e-05 0.000178098 0.000388758 0.000724337 
0.00133886 0.00210335 0.00306334 0.00369619 0.00368514 0.00238634 0.000853036 -0.000723881 0.00148615 0.00323178 
0.00346897 -0.00895805 -0.00829062 -0.0104795 -0.00942432 0.0103406 0.010953 0.0159006 -0.00510143 -0.0116728 
-0.010953 0.0039851 0.00901168 0.00278251 -0.00562284 -0.00446345 0.00163124 0.00303646 -0.000205507 -0.00148697 
0.000162439 0.000702762 -0.000254397 -0.000263482 0.000343698 7.11783e-05 -0.000286078 5.45226e-05 0.000189067 -0.000101208 
-8.05042e-05 9.50879e-05 5.54417e-06 -5.52411e-05 2.5209e-05 1.50243e-05 -2.11897e-05 5.65952e-06 6.32972e-06 -6.82818e-06 
2.00503e-06 1.46954e-06 -1.95378e-06 9.3799e-07 1.28764e-08 -3.71565e-07 3.12528e-07 -1.37738e-07 1.2172e-08 3.62525e-08 
-3.73463e-08 2.29963e-08 -9.88932e-09 2.38487e-09 6.2179e-10 -1.25584e-09 1.01698e-09 -6.30022e-10 3.35101e-10 -1.60777e-10 
6.87699e-11 -3.36126e-11 -9.46222e-13 -3.41798e-11 -6.86731e-11 -1.58509e-10 -3.41038e-10 -7.10235e-10 -1.41881e-09 -2.71942e-09 
-4.95463e-09 -8.5321e-09 -1.35293e-08 -1.92602e-08 -2.17413e-08 -1.28546e-08 3.08395e-08 1.38773e-07 3.87393e-07 7.96343e-07 
1.47068e-06 1.9985e-06 1.94889e-06 -1.47793e-06 -1.18764e-05 -3.92573e-05 -9.67414e-05 -0.000201554 -0.000375935 -0.000593371 
-0.000824848 -0.000841496 -0.000461288 0.000630314 0.0022466 0.00354594 0.00303304 0.000489106 -0.00283473 -9.42448e-05 
0.000387997 -0.00696492 0.00624661 -0.00909422 0.0139838 0.00537891 0.00890344 -0.00473879 -0.00866391 -0.000453417 
0.00642235 0.00598801 -0.00579328 -0.00820511 -0.000842455 0.00680505 0.0031817 -0.00332339 -0.00310056 0.00133418 
0.00179267 -0.000568514 -0.000728263 0.000441854 0.000125818 -0.000363955 0.000161327 0.00023527 -0.000249044 -7.70296e-05 
0.000214679 -4.07852e-05 -0.000119097 8.29058e-05 2.62282e-05 -6.05522e-05 2.1367e-05 1.79831e-05 -2.22922e-05 6.5413e-06 
5.71333e-06 -7.17771e-06 3.01734e-06 6.46295e-07 -1.77155e-06 1.23409e-06 -3.78594e-07 -1.30366e-07 2.55713e-07 -1.88004e-07 
8.68704e-08 -1.91738e-08 -9.71752e-09 1.52052e-08 -1.16392e-08 6.767e-09 -3.24895e-09 1.29711e-09 -4.04199e-10 6.24633e-11 
2.5793e-11 -5.32978e-11 2.67408e-12 -7.4789e-11 -1.15532e-10 -2.69243e-10 -5.60394e-10 -1.1872e-09 -2.49008e-09 -5.19131e-09 
-1.07191e-08 -2.18386e-08 -4.37151e-08 -8.54715e-08 -1.62317e-07 -2.96756e-07 -5.17747e-07 -8.46564e-07 -1.26679e-06 -1.62177e-06 
-1.46594e-06 3.69521e-07 6.21521e-06 2.08775e-05 5.23197e-05 0.000114037 0.000224128 0.000402983 0.000664769 0.000985364 
0.00129948 0.00142482 0.00120785 0.000535823 -0.000297793 -0.000657597 -0.000236405 0.000119587 -0.00126248 -0.00461805 
-0.00794569 -0.000970848 -0.0203822 -0.0060286 -0.00182177 0.00215741 0.00553256 -0.000634118 0.00376669 0.000788476 
-0.00267206 -0.00615627 -0.00113469 0.00710579 0.00561528 -0.00347841 -0.00735446 -0.000372468 0.00521021 0.00190481 
-0.00279517 -0.00141448 0.00129242 0.000525149 -0.00058985 0.000108941 0.00021316 -0.000360824 4.46618e-05 0.000336438 
-0.000200174 -0.000172823 0.000226214 4.65974e-06 -0.000145849 7.81224e-05 3.76811e-05 -6.62704e-05 2.34567e-05 1.75524e-05 
-2.40646e-05 9.65898e-06 3.52716e-06 -7.10647e-06 4.36434e-06 -7.58333e-07 -1.09663e-06 1.27456e-06 -7.45269e-07 2.23264e-07 
5.43217e-08 -1.28027e-07 1.04726e-07 -6.01636e-08 2.60697e-08 -7.50201e-09 -1.12786e-10 2.12202e-09 -1.97673e-09 1.33201e-09 
-7.61059e-10 4.13941e-10 -1.65523e-10 1.64815e-10 1.2514e-10 3.88901e-10 7.95479e-10 1.69854e-09 3.47792e-09 6.93019e-09 
1.33465e-08 2.47238e-08 4.36758e-08 7.25339e-08 1.10282e-07 1.44488e-07 1.33193e-07 -3.30435e-08 -6.02245e-07 -2.09264e-06 
-5.50559e-06 -1.26895e-05 -2.68254e-05 -5.31718e-05 -9.95643e-05 -0.000176566 -0.000294692 -0.000456934 -0.000643009 -0.000783086 
-0.00074999 -0.000368202 0.000425715 0.00143068 0.00197513 0.00126648 -0.000607423 -0.00210945 -0.00136171 -0.000510135 
0.00876482 -0.0133874 0.000511847 0.0116887 0.013009 0.0155201 0.0030532 -0.00205368 -0.00642033 -0.00668141 
-0.00185666 0.00422325 0.00532218 -0.00194459 -0.00798314 -0.00249996 0.00696725 0.00613483 -0.0034697 -0.00608859 
0.000656795 0.00409127 0.000186648 -0.00206548 -9.85208e-06 0.000724393 -0.000273287 3.89692e-05 0.000297276 -0.000393042 
-0.000100259 0.000433798 -0.000131099 -0.000264147 0.000232408 4.3274e-05 -0.00016976 8.07395e-05 4.22767e-05 -7.27274e-05 
3.06801e-05 1.31412e-05 -2.50235e-05 1.4162e-05 -6.12291e-07 -5.61329e-06 5.20706e-06 -2.42124e-06 1.86313e-07 7.43398e-07 
-7.74334e-07 4.81363e-07 -2.02851e-07 3.99797e-08 2.4784e-08 -3.62761e-08 2.81569e-08 -1.72327e-08 9.11995e-09 -4.3325e-09 
1.88898e-09 -7.57246e-10 2.98313e-10 -8.54584e-11 7.41976e-11 6.41437e-11 1.73566e-10 3.85338e-10 9.34013e-10 2.30014e-09 
5.69453e-09 1.39235e-08 3.3291e-08 7.73611e-08 1.74133e-07 3.7905e-07 7.97502e-07 1.62234e-06 3.19443e-06 6.10008e-06 
1.13252e-05 2.05017e-05 3.62579e-05 6.2641e-05 0.00010522 0.000170043 0.000259385 0.000362291 0.00043972 0.000411787 
0.000173906 -0.000336739 -0.000993207 -0.00140703 -0.00109167 -0.000173858 -0.000134817 -0.00286516 -0.00716132 -0.0051904 
-0.0200301 -0.0193809 -0.000935933 -0.00868119 -0.000638078 -0.00835254 -0.00405626 -0.00259677 0.00339429 0.00549713 
0.00787095 0.00193172 -0.00436053 -0.00539471 0.00283239 0.00687656 -0.000675149 -0.00851296 -0.00297725 0.00698197 
0.00491398 -0.00404624 -0.00421653 0.0019319 0.00240356 -0.000913986 -0.000788586 0.000387313 -0.000162969 4.75433e-05 
0.000451556 -0.00039659 -0.000275963 0.00050868 -5.34453e-05 -0.000343632 0.000242358 6.69165e-05 -0.000191372 9.49835e-05 
3.61104e-05 -7.7643e-05 4.30575e-05 2.66436e-06 -2.25097e-05 1.83672e-05 -6.53527e-06 -1.79461e-06 4.33757e-06 -3.40533e-06 
1.62883e-06 -3.39651e-07 -2.39769e-07 3.51472e-07 -2.70031e-07 1.57949e-07 -7.55795e-08 2.93651e-08 -8.19843e-09 4.07114e-10 
1.53956e-09 -1.50186e-09 9.54721e-10 -6.42996e-10 9.61445e-11 -5.65641e-10 -8.95624e-10 -2.1179e-09 -4.49592e-09 -9.54184e-09 
-1.98214e-08 -4.03833e-08 -8.04956e-08 -1.56695e-07 -2.97354e-07 -5.49374e-07 -9.87863e-07 -1.73114e-06 -2.96754e-06 -5.00977e-06 
-8.40587e-06 -1.41436e-05 -2.3942e-05 -4.04584e-05 -6.68047e-05 -0.000104143 -0.000145626 -0.000166263 -0.000113415 8.71643e-05 
0.000484434 0.00100536 0.00135241 0.00107562 -2.40514e-05 -0.00125651 -0.00115843 0.000298126 -0.0012223 -0.0114028 
-0.00409434 0.0173073 0.00101966 0.0163253 0.0088613 0.0148244 0.00613253 -0.000216447 -0.00607938 -0.00801473 
-0.00604286 -0.00661571 -0.000492784 0.00494141 0.0055895 -0.0028667 -0.00529192 0.00277956 0.00769618 -0.00119086 
-0.00865751 -0.00140449 0.00701179 0.00230473 -0.00439952 -0.00161238 0.00219722 0.000543623 -0.000644626 4.60575e-05 
-0.000315083 1.72239e-06 0.000665914 -0.000363684 -0.00046121 0.000574973 8.16557e-06 -0.000412713 0.0002716 6.59161e-05 
-0.000209292 0.000123912 1.36744e-05 -7.53379e-05 5.76807e-05 -1.48767e-05 -1.30253e-05 1.86261e-05 -1.20421e-05 3.93556e-06 
9.13522e-07 -2.39363e-06 2.04794e-06 -1.2117e-06 5.29482e-07 -1.43011e-07 -1.85901e-08 5.96691e-08 -5.31451e-08 3.56597e-08 
-2.07054e-08 1.09755e-08 -5.43058e-09 2.62934e-09 -1.0734e-09 7.85777e-10 3.51502e-10 1.36736e-09 2.63005e-09 5.42953e-09 
1.05196e-08 1.95462e-08 3.4397e-08 5.67949e-08 8.66021e-08 1.18954e-07 1.40998e-07 1.32844e-07 8.4883e-08 5.45987e-08 
2.91651e-07 1.43248e-06 4.64722e-06 1.13419e-05 2.1573e-05 3.00345e-05 1.92129e-05 -4.72918e-05 -0.000221351 -0.000539712 
-0.000954613 -0.00125547 -0.00109007 -0.00025471 0.000760899 0.000522484 -0.00213807 -0.0052641 -0.00330485 0.00371809 
0.00688558 -0.0211142 -0.00829243 -0.00365235 -0.0069473 -0.00166445 -0.0144758 -0.0018049 0.00334126 0.0142391 
0.0110715 0.00580137 0.0023916 -0.00272354 -0.00679774 -0.00550866 0.00330525 0.00469914 -0.00343238 -0.00547569 
0.00463926 0.0076114 -0.00339533 -0.00786873 0.00168602 0.00590702 -0.000810772 -0.00326391 0.000460669 0.00109598 
-1.01954e-05 6.06427e-05 -0.000589794 -0.000169626 0.000912138 -0.000310984 -0.000641305 0.000657513 2.90357e-05 -0.000470206 
0.000331826 2.70018e-05 -0.000213205 0.000164161 -3.02829e-05 -5.56523e-05 6.56721e-05 -3.58185e-05 5.039e-06 1.04259e-05 
-1.23845e-05 8.27709e-06 -3.66694e-06 7.22281e-07 5.34809e-07 -7.81221e-07 6.21327e-07 -3.89849e-07 2.10998e-07 -1.0224e-07 
4.52466e-08 -1.85209e-08 7.12165e-09 -2.57021e-09 1.00925e-09 -1.89587e-10 5.15152e-10 7.83602e-10 1.98962e-09 4.46839e-09 
1.01978e-08 2.27855e-08 4.98522e-08 1.05961e-07 2.17447e-07 4.27883e-07 8.01265e-07 1.41513e-06 2.33072e-06 3.52795e-06 
4.81908e-06 5.84071e-06 6.41197e-06 7.82376e-06 1.57907e-05 4.52576e-05 0.000124994 0.000295182 0.000585868 0.000966134 
0.00127819 0.00122669 0.000546258 -0.00059758 -0.00127567 -0.000341513 0.00154245 0.000267213 -0.00736237 -0.0117386 
-0.0231702 -0.0130979 0.0130066 0.00738099 0.0118076 0.00370976 0.000247348 0.00710737 -0.00401724 -0.0100407 
-0.0189628 -0.0104438 -0.00099741 0.00405131 0.00624399 0.00764998 0.00388001 -0.00519645 -0.00526629 0.00344504 
0.0035457 -0.00606958 -0.00431128 0.00740075 0.00546877 -0.0064001 -0.00479583 0.00444334 0.00287453 -0.00240798 
-0.00115757 0.000629393 0.000530091 0.000442379 -0.000839653 -0.000445281 0.0011752 -0.00028334 -0.000799651 0.000783575 
-2.27837e-05 -0.000499676 0.000423935 -6.61099e-05 -0.000179698 0.000198362 -9.28351e-05 -8.58212e-06 5.1881e-05 -4.75339e-05 
2.54455e-05 -6.28269e-06 -3.58831e-06 6.06295e-06 -4.97029e-06 3.05087e-06 -1.51621e-06 6.04819e-07 -1.68612e-07 2.66089e-09 
3.95786e-08 -3.73426e-08 2.50201e-08 -1.44011e-08 7.2487e-09 -3.91569e-09 7.07836e-10 -2.65697e-09 -4.19573e-09 -9.84117e-09 
-2.0781e-08 -4.32996e-08 -8.74156e-08 -1.70726e-07 -3.20998e-07 -5.77985e-07 -9.90854e-07 -1.6082e-06 -2.46385e-06 -3.58714e-06 
-5.1312e-06 -7.83692e-06 -1.42158e-05 -3.09004e-05 -7.21899e-05 -0.000163256 -0.00033823 -0.000624462 -0.00100446 -0.00136148 
-0.00145262 -0.00100088 1.65075e-05 0.00100252 0.000814589 -0.0010648 -0.00276892 -0.000974751 0.002076 -0.00604835 
-0.00362239 0.0255652 0.0112106 0.00518892 -0.00412161 -0.00485497 -0.00193386 0.00298426 -0.00188382 0.00918277 
0.0152676 0.0191027 0.00412559 -0.00852108 -0.0107456 -0.00692153 -0.00495643 -7.31307e-05 0.0078413 0.00548283 
-0.00438227 -0.00299511 0.00568249 0.000556638 -0.00864299 -0.000316864 0.00925756 0.000283435 -0.00732009 0.000169565 
0.00430649 -0.000279415 -0.00175409 -0.000360957 0.000695484 0.00103977 -0.00102993 -0.000756058 0.00147189 -0.000349386 
-0.000904306 0.000968613 -0.000187583 -0.000456873 0.000521503 -0.000219109 -7.65377e-05 0.000188036 -0.000148304 6.04769e-05 
5.21201e-06 -3.1506e-05 3.07096e-05 -1.98124e-05 9.32211e-06 -2.73848e-06 -2.76462e-07 1.15015e-06 -1.08449e-06 7.5978e-07 
-4.58107e-07 2.5106e-07 -1.28662e-07 6.28402e-08 -2.94039e-08 1.37366e-08 -5.31612e-09 4.09251e-09 2.30698e-09 7.78175e-09 
1.52451e-08 3.12986e-08 6.09528e-08 1.1441e-07 2.06058e-07 3.56994e-07 6.00447e-07 1.00413e-06 1.74511e-06 3.3227e-06 
7.07786e-06 1.62856e-05 3.81003e-05 8.63091e-05 0.000183756 0.000361049 0.000645233 0.00103139 0.00143813 0.00167262 
0.00146823 0.000670199 -0.000452787 -0.00106148 -0.000308464 0.00125925 0.00104222 -0.00243124 -0.00381417 0.00290367 
0.0109714 -0.00708809 -0.0150991 -0.0142096 -0.00900268 0.00113435 -0.00157729 -0.00118881 -0.00666643 -0.00021609 
-0.0101695 -0.0148869 -0.0134467 0.00673446 0.0186941 0.0130792 0.00157527 -0.00152356 -0.00395752 -0.00878162 
-0.00354812 0.00687664 0.00324807 -0.00509738 0.0016827 0.0067176 -0.00510563 -0.00786038 0.0060732 0.00649843 
-0.0053229 -0.00375107 0.00340323 0.00172035 -0.00132576 -0.00138802 0.000516983 0.00171939 -0.00123641 -0.00101153 
0.00182958 -0.000596125 -0.000881308 0.00118483 -0.000496557 -0.000266318 0.000547014 -0.000393088 0.000108573 8.55584e-05 
-0.00014103 0.000109789 -5.56716e-05 1.43011e-05 6.42941e-06 -1.21302e-05 1.0598e-05 -7.11866e-06 4.08459e-06 -2.08994e-06 
9.76571e-07 -4.24068e-07 1.74189e-07 -6.93058e-08 2.75679e-08 -1.15069e-08 4.87386e-09 -2.82916e-09 1.19511e-10 -2.85746e-09 
-4.68128e-09 -1.04482e-08 -2.12659e-08 -4.42396e-08 -9.45263e-08 -2.125e-07 -5.04531e-07 -1.24623e-06 -3.12018e-06 -7.71896e-06 
-1.85059e-05 -4.2423e-05 -9.21045e-05 -0.000187901 -0.000357361 -0.000627631 -0.001005 -0.00143981 -0.00178988 -0.00182335 
-0.00132351 -0.000322294 0.00066893 0.000797417 -0.000288276 -0.00141714 -0.000671999 0.000864195 -0.00189421 -0.00543513 
-0.0137427 -0.0170166 0.00452953 0.00959026 0.0203637 0.0110249 0.00300439 0.00347169 0.00309611 0.00633629 
-0.00181777 0.00519279 0.0090053 0.00404778 -0.0171909 -0.0233999 -0.00692405 0.00951 0.00787271 0.0040454 
0.00602213 -0.00035662 -0.00954113 -0.00246742 0.005957 -0.00187406 -0.00345431 0.007612 0.00223441 -0.010206 
-0.000543821 0.00900449 -0.00110244 -0.00568217 0.00128098 0.00290395 -0.000297694 -0.00224959 0.000191064 0.00242218 
-0.00160575 -0.00108041 0.00223219 -0.00110785 -0.000591211 0.00130822 -0.000911818 0.000139512 0.00037053 -0.000463407 
0.00030555 -0.000106057 -2.43275e-05 7.23456e-05 -6.89109e-05 4.69427e-05 -2.55907e-05 1.12852e-05 -3.69745e-06 4.68075e-07 
5.32257e-07 -6.24176e-07 4.54041e-07 -2.72247e-07 1.44783e-07 -7.02958e-08 3.15096e-08 -1.30501e-08 5.22371e-09 -9.17991e-10 
3.35695e-09 8.68875e-09 2.62638e-08 7.48784e-08 2.06117e-07 5.48341e-07 1.40914e-06 3.49328e-06 8.33503e-06 1.9089e-05 
4.18212e-05 8.72992e-05 0.000172781 0.000322254 0.000561949 0.000906596 0.00133331 0.00174834 0.00197057 0.00177744 
0.00105567 1.99296e-05 -0.000706667 -0.00047286 0.000550026 0.000992769 -0.000134283 -0.00103373 -0.000150376 -0.00464907 
-0.00886552 0.0181839 0.016912 0.00790585 -0.00466144 -0.0193636 -0.013775 -0.00537486 -0.00286406 -0.0012413 
-0.000952057 0.00851745 0.0034923 -0.00207784 0.00281184 0.0209006 0.0186817 -0.00663464 -0.0205383 -0.00764282 
0.0023627 -0.00114828 0.00335355 0.0101445 -0.000640587 -0.00831554 0.00167523 0.00184984 -0.00597743 0.00394343 
0.00823988 -0.00747892 -0.00647544 0.00793803 0.00293784 -0.00567126 -0.000963114 0.00328868 0.000908361 -0.00301526 
-2.05664e-05 0.00311035 -0.00230606 -0.000744662 0.00252616 -0.00188306 0.000139112 0.00107549 -0.00121848 0.000691498 
-9.33871e-05 -0.000251179 0.000324016 -0.000246285 0.00013485 -4.98513e-05 3.62106e-06 1.37514e-05 -1.58468e-05 1.22983e-05 
-7.99057e-06 4.65563e-06 -2.51411e-06 1.28249e-06 -6.25185e-07 2.92936e-07 -1.32622e-07 5.69035e-08 -2.59347e-08 4.47878e-09 
-1.73754e-08 -3.49346e-08 -9.42473e-08 -2.37672e-07 -5.89062e-07 -1.42224e-06 -3.34013e-06 -7.60851e-06 -1.67624e-05 -3.55945e-05 
-7.25697e-05 -0.000141396 -0.000261818 -0.000457528 -0.000747853 -0.00112983 -0.00155137 -0.00188737 -0.00194839 -0.00156138 
-0.000732845 0.000195514 0.000621312 0.000174608 -0.000653382 -0.000733241 8.51893e-05 0.000283879 0.000267431 0.00234336 
0.0116687 0.011072 -0.00790342 -0.0147621 -0.01449 -0.000716498 0.0146361 0.01458 0.00509445 0.000308348 
-0.00346511 -0.00677873 -0.01625 -0.00997576 0.00078307 -0.00124016 -0.0155685 -0.00740356 0.0199155 0.023223 
-0.00247499 -0.0119609 -0.00047402 -0.00255748 -0.00825322 0.00543332 0.0102335 -0.003937 -0.00328952 0.00305141 
-0.00563922 -0.00114261 0.0106501 -0.00249884 -0.00977032 0.00508445 0.00560434 -0.00454863 -0.00277377 0.00325186 
0.00202349 -0.00390127 0.000207998 0.00363189 -0.00342333 0.000304351 0.00230524 -0.00264088 0.00132312 0.000183617 
-0.000977837 0.00100504 -0.000639538 0.000242481 1.49407e-05 -0.000120645 0.000129792 -9.91281e-05 6.31522e-05 -3.55807e-05 
1.83014e-05 -8.79586e-06 4.03598e-06 -1.80818e-06 8.08875e-07 -3.66847e-07 1.70656e-07 -7.74444e-08 4.20137e-08 -3.59913e-09 
4.03212e-08 7.90109e-08 2.01397e-07 4.79046e-07 1.12415e-06 2.57381e-06 5.7407e-06 1.24388e-05 2.60952e-05 5.28173e-05 
0.000102699 0.000190882 0.000337082 0.000561289 0.00087272 0.00125051 0.0016206 0.00184525 0.00175432 0.00124429 
0.000423378 -0.000315876 -0.00048305 2.9545e-05 0.000605675 0.000436964 -0.000310961 -0.000793031 -0.00128589 0.000590569 
-0.0001898 -0.016487 -0.012699 -0.00394909 0.0121102 0.0163418 0.00681125 -0.00920366 -0.0130709 -0.00378283 
0.00261806 0.00728861 0.0116822 0.0189017 0.00847054 -0.00861595 -0.00806374 0.00696239 -0.0011221 -0.0239992 
-0.0143887 0.017574 0.0163423 -0.00544644 -0.000871252 0.00613006 -0.00996163 -0.00891795 0.0100728 0.00486573 
-0.0040708 0.00224969 -0.00396437 -0.00517801 0.0100561 0.00208605 -0.0105751 0.00216023 0.00681309 -0.003138 
-0.00409613 0.00326923 0.00284441 -0.00511137 0.00130085 0.00352354 -0.0047059 0.00226284 0.000935283 -0.0025995 
0.00239982 -0.00125083 0.000132305 0.000495363 -0.000645673 0.000528273 -0.000336985 0.000176141 -7.44042e-05 2.24192e-05 
-1.21757e-06 -4.74117e-06 4.74858e-06 -3.2296e-06 1.82381e-06 -9.04823e-07 3.99469e-07 -1.61827e-07 4.65469e-08 -3.68377e-08 
-4.9455e-08 -1.27427e-07 -3.05677e-07 -7.12839e-07 -1.63116e-06 -3.63517e-06 -7.88728e-06 -1.66003e-05 -3.38011e-05 -6.63246e-05 
-0.000124887 -0.000224479 -0.000382717 -0.000613929 -0.00091691 -0.00125681 -0.00154852 -0.00165938 -0.00145577 -0.000903002 
-0.000174037 0.000353432 0.00033499 -0.000151661 -0.000510121 -0.000230656 0.000373172 0.000558728 -0.00036551 -0.00379254 
-0.0112292 -0.00151285 0.0107468 0.0154755 0.0121541 -0.0067602 -0.0167665 -0.0127899 0.00316464 0.0106975 
0.00371055 -0.00263231 -0.00609124 -0.00954559 -0.0135543 0.000789296 0.0209148 0.0162133 -0.00554252 -0.000847335 
0.0178583 0.000944752 -0.0270086 -0.0095421 0.0162408 0.00153162 -0.00605762 0.0127232 0.00267821 -0.0171968 
-0.000376651 0.0100647 -0.000896929 0.00118229 -0.00238747 -0.00733084 0.00817975 0.00495122 -0.00991755 0.000108954 
0.00699244 -0.00194467 -0.00513509 0.00383801 0.00300264 -0.0065705 0.00365935 0.00188559 -0.00513649 0.00457841 
-0.00185771 -0.000736598 0.00201528 -0.00203245 0.00140667 -0.000703708 0.000203239 5.44024e-05 -0.000139088 0.000134905 
-0.000100275 6.45236e-05 -3.76722e-05 2.04317e-05 -1.04245e-05 5.03624e-06 -2.30642e-06 1.00697e-06 -4.01553e-07 1.85676e-07 
7.82393e-09 1.7784e-07 3.69874e-07 8.73308e-07 1.96714e-06 4.3309e-06 9.24602e-06 1.91341e-05 3.82189e-05 7.34545e-05 
0.000135204 0.000237084 0.000393393 0.000612437 0.000884511 0.00116675 0.00137365 0.00139013 0.00112434 0.000595785 
2.92915e-06 -0.000332732 -0.000205395 0.000202281 0.000381311 4.96938e-05 -0.000398629 -0.000256335 0.000766756 0.000209306 
0.00291841 0.0159383 0.0097786 0.000496931 -0.0122749 -0.0149947 0.000939365 0.0164359 0.0179659 0.0031332 
-0.00865726 -0.00611813 -0.00187261 -0.000759846 0.00173869 0.00480076 -0.00954465 -0.0270397 -0.0133884 0.0159237 
0.0100463 -0.0114339 0.0056198 0.0248333 -0.00458191 -0.0231396 0.00461176 0.0071112 -0.0133274 0.00701885 
0.0181627 -0.0126604 -0.0124648 0.00897467 0.00351107 0.000879769 -0.00163453 -0.00785843 0.0064904 0.00585368 
-0.00868531 -0.000871236 0.0066412 -0.00121613 -0.00609238 0.00546055 0.00169043 -0.00741431 0.00702439 -0.00215867 
-0.00283076 0.00510226 -0.00454663 0.00259571 -0.00067543 -0.000520929 0.000965204 -0.000930813 0.000702332 -0.000457772 
0.000269746 -0.000147879 7.70584e-05 -3.88089e-05 1.91055e-05 -9.24002e-06 4.38077e-06 -2.03023e-06 8.94361e-07 -4.15693e-07 
8.84804e-08 -2.29072e-07 -3.79336e-07 -9.30011e-07 -2.08201e-06 -4.54409e-06 -9.63723e-06 -1.97205e-05 -3.89253e-05 -7.37327e-05 
-0.000133504 -0.00022972 -0.000373055 -0.000566598 -0.000795184 -0.00101388 -0.00114479 -0.00109626 -0.000814481 -0.000353176 
9.45546e-05 0.000279908 0.000106343 -0.000204647 -0.000260912 3.96028e-05 0.000266839 -5.23991e-05 -0.000311347 0.00206956 
0.00719818 -0.000906429 -0.0119228 -0.0164766 -0.0112344 0.00362471 0.0132875 0.00344633 -0.0148419 -0.0217289 
-0.00902088 0.00677721 0.00961675 0.00808822 0.0082567 0.00418972 -0.00213071 0.00826783 0.0208505 0.000232795 
-0.0294551 -0.0132512 0.0156972 -0.00236452 -0.017284 0.0153776 0.0202451 -0.014965 -0.00603356 0.0121836 
-0.0148228 -0.00776177 0.0253034 9.68391e-05 -0.0197012 0.0037674 0.00705327 0.00136886 -0.00189617 -0.00724314 
0.00566691 0.00501354 -0.00717776 -0.0011213 0.00624433 -0.00123348 -0.00678736 0.00834293 -0.00228942 -0.00543433 
0.00910298 -0.0075319 0.0031673 0.00096154 -0.00324316 0.00365337 -0.00295921 0.00194812 -0.00108432 0.00051393 
-0.00020286 6.12135e-05 -9.18151e-06 -4.07312e-06 4.36342e-06 -2.16818e-06 5.72531e-07 1.25777e-07 -2.67021e-07 2.52139e-07 
-7.34212e-08 2.3445e-07 3.4294e-07 9.0546e-07 1.97096e-06 4.34787e-06 9.1335e-06 1.86273e-05 3.64434e-05 6.83764e-05 
0.000122289 0.000207375 0.000330938 0.000492306 0.000673914 0.00083341 0.000904991 0.000820847 0.000556575 0.000181551 
-0.00013539 -0.000216594 -3.96804e-05 0.000179756 0.000165697 -7.03026e-05 -0.000173016 -1.6958e-05 -0.000340247 -0.000807085 
-0.00382349 -0.0111954 -0.00715808 0.00212475 0.0148415 0.0166891 0.00484904 -0.0100145 -0.00750908 0.0106952 
0.0229894 0.0142094 -0.00352 -0.0105344 -0.0104193 -0.00948264 -0.00129384 0.0101358 0.00265683 -0.00965572 
0.00992514 0.0315672 0.0021167 -0.0280799 4.95904e-05 0.0155881 -0.0179014 -0.0111478 0.0229862 0.001018 
-0.0108819 0.0153436 -0.00828627 -0.0221496 0.0223109 0.0132572 -0.0211682 -0.00213415 0.00919666 0.00212674 
-0.00311244 -0.00563127 0.00552075 0.00282784 -0.0051648 -0.00136687 0.00643677 -0.00273541 -0.00595692 0.0112237 
-0.00906325 0.00196504 0.00501658 -0.00853795 0.00829212 -0.00586178 0.00304356 -0.000909068 -0.000274393 0.000706753 
-0.000711056 0.000546052 -0.000359623 0.000212019 -0.000114119 5.65987e-05 -2.59532e-05 1.09881e-05 -4.28739e-06 1.49443e-06 
-5.40388e-07 2.27713e-09 -3.79752e-07 -7.46211e-07 -1.77732e-06 -3.79035e-06 -8.07537e-06 -1.63271e-05 -3.18685e-05 -5.93448e-05 
-0.000105221 -0.000176391 -0.000277524 -0.000405643 -0.00054328 -0.000653505 -0.000683998 -0.000587758 -0.000360112 -7.21632e-05 
0.000139465 0.000156773 6.8904e-08 -0.000145435 -0.000100365 7.2755e-05 0.000128603 6.96895e-05 5.11278e-05 -0.00136951 
-0.00453727 0.00257291 0.0105759 0.0152019 0.010781 -0.00392253 -0.0135926 -0.00804185 0.00862426 0.013391 
-0.00253166 -0.0203009 -0.0181434 -0.00201347 0.00664296 0.00643236 0.00352648 -0.0078786 -0.0211168 -0.0105191 
0.00843515 -0.00537445 -0.0199148 0.013905 0.032893 -0.00969374 -0.0201662 0.0187829 0.00309987 -0.0255019 
0.00755322 0.0111849 -0.0109877 0.0152557 0.0019976 -0.0301998 0.0141919 0.021987 -0.0193569 -0.00632869 
0.0103576 0.00246646 -0.0050218 -0.00272812 0.00497766 0.000200124 -0.00252431 -0.00228028 0.00785127 -0.00689872 
-0.000760764 0.00948126 -0.0137859 0.0122273 -0.0069861 0.00128454 0.00271406 -0.00446301 0.00449442 -0.00364867 
0.00258902 -0.00166868 0.000998734 -0.000562405 0.000300042 -0.000152026 7.31178e-05 -3.32973e-05 1.4317e-05 -5.75346e-06 
2.20198e-06 -6.05732e-07 4.50288e-07 6.40084e-07 1.37921e-06 3.21227e-06 6.60074e-06 1.35352e-05 2.62315e-05 4.87236e-05 
8.57995e-05 0.000142599 0.000221769 0.000319357 0.00041959 0.000492172 0.000497503 0.000404888 0.000220938 9.97604e-06 
-0.000123817 -0.000107276 1.99615e-05 0.000111162 5.65614e-05 -6.97286e-05 -9.97473e-05 -8.38705e-06 0.000273389 0.000625944 
0.00292931 0.00805802 0.0047932 -0.00341397 -0.0153669 -0.0200176 -0.0102794 0.00366052 0.00527844 -0.0100479 
-0.021292 -0.00975456 0.0125498 0.0190455 0.00764415 -0.000942711 -0.00112877 0.00143723 0.0118082 0.0217418 
0.00414521 -0.021114 -0.00705173 0.0107042 -0.0169664 -0.0217821 0.0251543 0.0186763 -0.0248054 0.00343239 
0.0233975 -0.0187783 -0.00998197 0.0118844 -0.0088508 0.0128846 0.0105202 -0.0317931 0.00684434 0.0251119 
-0.0169916 -0.00774662 0.0109527 0.00172066 -0.00690355 0.00172696 0.00226341 -0.000749152 -0.000596105 -0.00300904 
0.00940794 -0.0129317 0.0103206 -0.00291168 -0.0053315 0.0109558 -0.012734 0.0114437 -0.00867789 0.00580009 
-0.00352441 0.00200248 -0.00109343 0.000587428 -0.000314542 0.00016762 -8.7794e-05 4.4479e-05 -2.15264e-05 9.87293e-06 
-4.37091e-06 1.78378e-06 -1.04712e-06 -6.27329e-08 -1.36278e-06 -2.29839e-06 -5.29796e-06 -1.0516e-05 -2.05914e-05 -3.80545e-05 
-6.67913e-05 -0.000110264 -0.000169923 -0.000241659 -0.000312243 -0.000357999 -0.000350143 -0.000269715 -0.000128372 2.02969e-05 
0.000100476 6.98868e-05 -2.73227e-05 -8.1269e-05 -2.87083e-05 5.88646e-05 5.71993e-05 -5.51756e-05 -0.000129122 0.000757269 
0.00276721 -0.00170477 -0.00824607 -0.0125308 -0.00906852 0.00432662 0.0179212 0.0180369 0.00568492 -0.00139494 
0.0107794 0.0276934 0.0233211 -0.000345563 -0.0149764 -0.0092682 -0.000523943 0.00227754 0.00312395 -0.00359604 
-0.0102768 0.00956234 0.0317595 0.00741114 -0.0185777 0.00615508 0.00842982 -0.0290497 -0.00508659 0.0301268 
-0.0124996 -0.0162264 0.0284342 -0.0009495 -0.0191489 0.00638331 -0.00634997 0.0105062 0.0141535 -0.0294887 
0.00371778 0.0229839 -0.0150258 -0.00636067 0.010816 -0.000519214 -0.00720125 0.0066703 -0.00369154 0.00289286 
-0.00296286 0.000537135 0.00534581 -0.0124584 0.0174542 -0.0182926 0.0152308 -0.0101489 0.00515379 -0.00154998 
-0.000381804 0.00102991 -0.000973277 0.000672395 -0.000378966 0.000178596 -6.89319e-05 1.95558e-05 -1.88692e-06 -2.24401e-06 
2.00532e-06 -8.78986e-07 3.44365e-07 5.04196e-07 5.90178e-07 2.01393e-06 3.74095e-06 7.975e-06 1.53488e-05 2.85047e-05 
4.98596e-05 8.19757e-05 0.000125438 0.000176589 0.000224916 0.000252657 0.000239562 0.00017453 7.02619e-05 -3.11834e-05 
-7.66453e-05 -4.35671e-05 2.73903e-05 5.73748e-05 1.27912e-05 -4.4002e-05 -2.89729e-05 2.66479e-05 -9.72486e-05 -0.000401797 
-0.00177664 -0.00518795 -0.00374638 0.00270311 0.0134978 0.0197019 0.0131798 -0.00305061 -0.0127821 -0.00643118 
0.00330734 -0.00475771 -0.026248 -0.0320176 -0.012167 0.007382 0.00646054 -0.00316084 -0.00955975 -0.0134771 
-0.00745113 0.00230776 -0.0111224 -0.0237191 0.00934047 0.0327079 -0.0025767 -0.0107406 0.0192612 -0.00793205 
-0.0249678 0.0213536 0.00413695 -0.0273262 0.0200968 0.0152017 -0.0191083 -0.00074866 -0.00425031 0.0097366 
0.0121954 -0.0248588 0.00496043 0.0159272 -0.011866 -0.00363015 0.00950299 -0.00396794 -0.00369843 0.00804678 
-0.00957169 0.0102413 -0.0108843 0.0110399 -0.00962538 0.00592702 -0.000429294 -0.00526718 0.00940896 -0.011071 
0.0104375 -0.00839889 0.00594583 -0.00376807 0.00216073 -0.00112845 0.000538417 -0.000234532 9.25877e-05 -3.23687e-05 
9.2631e-06 -1.52183e-06 -7.40081e-07 6.45728e-07 -1.24415e-06 -8.81529e-07 -2.9722e-06 -5.5525e-06 -1.10939e-05 -2.04762e-05 
-3.58679e-05 -5.88088e-05 -8.95547e-05 -0.000125074 -0.000157406 -0.000173663 -0.000159971 -0.000110156 -3.57808e-05 3.1627e-05 
5.58683e-05 2.60878e-05 -2.39458e-05 -3.95333e-05 -4.65118e-06 3.15561e-05 1.973e-05 1.57604e-06 2.35789e-05 -0.000435013 
-0.00176158 0.000707592 0.00532883 0.00948719 0.00798658 -0.00337074 -0.0186445 -0.025101 -0.0157801 -0.00242905 
-0.00257883 -0.0133782 -0.0110294 0.0121323 0.0290999 0.0179989 -0.00246829 -0.00543229 0.00425722 0.0123771 
0.0157313 0.00568777 -0.010974 -0.0040239 0.00622205 -0.020932 -0.0283951 0.0181653 0.0210249 -0.0149092 
0.00765914 0.0136757 -0.0228365 0.00590912 0.0139755 -0.0277738 0.00795105 0.0234435 -0.0141171 -0.00654173 
-0.00228801 0.0103768 0.00538379 -0.016838 0.0068423 0.00551782 -0.0045005 -0.00343838 0.0079142 -0.00741981 
0.00441231 7.46054e-05 -0.00533156 0.00976407 -0.0124777 0.0143384 -0.0166556 0.0194806 -0.0215662 0.021626 
-0.0193637 0.0155074 -0.0111895 0.00733461 -0.00439975 0.00242965 -0.00124098 0.000588667 -0.000260624 0.000108618 
-4.32911e-05 1.70097e-05 -6.73341e-06 3.02482e-06 -8.7071e-07 1.42893e-06 1.64704e-06 3.98309e-06 7.60635e-06 1.42253e-05 
2.49126e-05 4.08399e-05 6.20142e-05 8.61187e-05 0.000107349 0.000116621 0.000104619 6.80768e-05 1.64944e-05 -2.73432e-05 
-3.93375e-05 -1.50472e-05 1.93185e-05 2.67592e-05 6.56426e-07 -2.28847e-05 -1.39001e-05 9.44037e-06 7.09411e-05 0.000169789 
0.000809446 0.00324831 0.00309534 -0.000914489 -0.00958854 -0.0171333 -0.0141256 0.00183358 0.0196685 0.0236909 
0.0149265 0.0124207 0.0246196 0.0307996 0.0116186 -0.0137555 -0.0137051 0.0047183 0.0114765 0.00350281 
-0.00424008 -0.00546378 0.0072974 0.0247014 0.0139163 -0.00573011 0.00844386 0.00664609 -0.0317081 -0.0147856 
0.0249589 -0.00332577 -0.00866437 0.0186215 -0.00857589 -0.00359016 0.0143959 -0.0224916 -0.000285689 0.023714 
-0.00843993 -0.00978994 0.000269618 0.0101235 -0.00346144 -0.00349362 0.00164462 -0.00089618 0.00570812 -0.00958261 
0.00936109 -0.00922116 0.0119065 -0.0144536 0.0132973 -0.00932434 0.00649584 -0.00734098 0.0109478 -0.0145319 
0.0159349 -0.0147421 0.0118419 -0.00845233 0.00545329 -0.00321923 0.00175256 -0.000883203 0.000411748 -0.000176509 
6.86097e-05 -2.35355e-05 6.62813e-06 -1.37617e-06 -3.11075e-07 -3.58921e-07 -1.36275e-06 -2.52633e-06 -5.11145e-06 -9.52663e-06 
-1.67604e-05 -2.75133e-05 -4.17483e-05 -5.77778e-05 -7.15141e-05 -7.67111e-05 -6.72102e-05 -4.1353e-05 -6.41783e-06 2.1614e-05 
2.69643e-05 8.3832e-06 -1.47521e-05 -1.78536e-05 1.05872e-06 1.59929e-05 6.68237e-06 -1.59972e-05 -1.54404e-05 0.0002522 