# vtk DataFile Version 2.0
Titre
ASCII
DATASET STRUCTURED_POINTS
DIMENSIONS 100 100 1
ORIGIN 0.0 0.0 0.0
SPACING 0.1 0.1 0.0
POINT_DATA 10000 
SCALARS rho float
LOOKUP_TABLE default
-6.82138e-17 -1.80803e-16 -4.9424e-16 -1.28213e-15 -3.17547e-15 -7.48742e-15 -1.67701e-14 -3.55865e-14 -7.13352e-14 -1.34626e-13 
-2.38265e-13 -3.93648e-13 -6.03801e-13 -8.54112e-13 -1.10495e-12 -1.29323e-12 -1.34939e-12 -1.2288e-12 -9.43819e-13 -5.73204e-13 
-2.32311e-13 -1.41334e-14 6.01208e-14 4.14884e-14 3.87439e-15 -1.06029e-14 -4.75167e-15 1.92349e-15 1.73176e-15 -3.98524e-16 
-5.05726e-16 1.41123e-16 1.22178e-16 -6.17603e-17 -1.60387e-17 2.07263e-17 -3.85802e-18 -3.196e-18 2.37243e-18 -5.42301e-19 
-1.77923e-19 2.05214e-19 -9.17959e-20 2.28837e-20 -4.42296e-22 -2.83857e-21 1.77715e-21 -7.39129e-22 2.48316e-22 -7.19038e-23 
1.85206e-23 -4.32272e-24 9.25467e-25 -1.83327e-25 3.38183e-26 -5.83842e-27 9.46978e-28 -1.44744e-28 2.0896e-29 -2.85363e-30 
3.68892e-31 -4.51188e-32 5.20927e-33 -5.64642e-34 5.67796e-35 -5.15747e-36 3.94243e-37 -1.89225e-38 -1.14044e-39 5.32221e-40 
-1.0852e-40 1.78238e-41 -3.6516e-42 -6.56091e-42 -4.38747e-41 -2.68879e-40 -1.10369e-39 -1.93581e-39 6.31981e-38 9.90029e-37 
1.2884e-35 1.31233e-34 1.29506e-33 1.15958e-32 9.93176e-32 8.17367e-31 6.14674e-30 4.64439e-29 2.88498e-28 1.88429e-27 
6.3869e-27 1.26663e-26 -6.03467e-25 -7.58274e-24 -1.09003e-22 -1.03865e-21 -1.11751e-20 -9.7918e-20 -9.28624e-19 -7.7684e-18 
1.80704e-16 5.01931e-16 1.42223e-15 3.8296e-15 9.84441e-15 2.40974e-14 5.60477e-14 1.23558e-13 2.57447e-13 5.0537e-13 
9.31155e-13 1.60337e-12 2.5668e-12 3.7964e-12 5.14738e-12 6.33431e-12 6.98111e-12 6.76192e-12 5.59109e-12 3.74788e-12 
1.80967e-12 3.733e-13 -2.75275e-13 -2.8966e-13 -7.38804e-14 5.46971e-14 4.18967e-14 -5.42334e-15 -1.37124e-14 2.56822e-16 
4.10763e-15 -2.95345e-16 -1.14898e-15 3.08075e-16 2.33652e-16 -1.57352e-16 6.81044e-19 3.82134e-17 -1.87226e-17 1.39875e-18 
3.15469e-18 -2.16036e-18 7.54057e-19 -1.07194e-19 -5.04368e-20 4.7697e-20 -2.35022e-20 8.87906e-21 -2.82873e-21 7.92031e-22 
-1.9942e-22 4.58146e-23 -9.70163e-24 1.90782e-24 -3.50417e-25 6.03919e-26 -9.80255e-27 1.50318e-27 -2.18333e-28 3.01036e-29 
-3.94736e-30 4.93012e-31 -5.87238e-32 6.6771e-33 -7.25158e-34 7.52281e-35 -7.44917e-36 7.02523e-37 -6.27816e-38 5.25671e-39 
-4.01584e-40 2.55682e-41 -4.64534e-42 -3.1851e-41 -2.75698e-40 -2.36131e-39 -1.99455e-38 -1.65793e-37 -1.35462e-36 -1.08454e-35 
-8.48973e-35 -6.46546e-34 -4.76531e-33 -3.36432e-32 -2.23912e-31 -1.35872e-30 -6.90568e-30 -2.03562e-29 1.36627e-28 3.56518e-27 
4.86489e-26 5.46057e-25 5.5855e-24 5.36322e-23 4.95071e-22 4.41343e-21 3.84337e-20 3.26711e-19 2.73022e-18 2.2378e-17 
-4.98551e-16 -1.43357e-15 -4.18443e-15 -1.1621e-14 -3.0823e-14 -7.78906e-14 -1.87137e-13 -4.26433e-13 -9.19129e-13 -1.86806e-12 
-3.56729e-12 -6.37394e-12 -1.06036e-11 -1.6326e-11 -2.30938e-11 -2.97337e-11 -3.44188e-11 -3.52137e-11 -3.10353e-11 -2.25618e-11 
-1.23545e-11 -3.75752e-12 9.47698e-13 1.80048e-12 7.29541e-13 -2.15763e-13 -3.07407e-13 -1.89931e-14 9.26404e-14 1.60026e-14 
-2.83555e-14 -3.48698e-15 8.98631e-15 -7.42901e-16 -2.37626e-15 9.91089e-16 2.47413e-16 -3.65196e-16 1.2142e-16 1.93192e-17 
-3.8204e-17 1.95105e-17 -5.03619e-18 -2.32945e-19 9.9783e-19 -6.27636e-19 2.73635e-19 -9.7193e-20 2.98222e-20 -8.14316e-21 
2.01462e-21 -4.57067e-22 9.59241e-23 -1.87457e-23 3.4289e-24 -5.89537e-25 9.56046e-26 -1.46664e-26 2.13366e-27 -2.94986e-28 
3.88285e-29 -4.87366e-30 5.84125e-31 -6.69273e-32 7.33789e-33 -7.70468e-34 7.75219e-35 -7.47769e-36 6.91625e-37 -6.13313e-38 
5.21116e-39 -4.22795e-40 3.90953e-41 4.97124e-41 4.23214e-40 3.3645e-39 2.61022e-38 1.96445e-37 1.42156e-36 9.7412e-36 
6.13427e-35 3.29897e-34 1.13595e-33 -4.54484e-33 -1.56818e-31 -2.29489e-30 -2.71593e-29 -2.90293e-28 -2.91738e-27 -2.81031e-26 
-2.62317e-25 -2.38824e-24 -2.1302e-23 -1.86684e-22 -1.61075e-21 -1.37001e-20 -1.14963e-19 -9.52021e-19 -7.78046e-18 -6.27255e-17 
1.29939e-15 3.87477e-15 1.16672e-14 3.34597e-14 9.16641e-14 2.39346e-13 5.94453e-13 1.40107e-12 3.12551e-12 6.57963e-12 
1.30261e-11 2.41559e-11 4.17619e-11 6.69309e-11 9.87518e-11 1.32965e-10 1.6153e-10 1.7431e-10 1.63316e-10 1.28013e-10 
7.81025e-11 3.03227e-11 -4.39375e-13 -9.92541e-12 -5.7636e-12 3.10787e-13 1.95543e-12 4.76818e-13 -5.34461e-13 -2.16372e-13 
1.65683e-13 6.1359e-14 -5.98767e-14 -7.01664e-15 1.98633e-14 -4.65354e-15 -3.70899e-15 2.95778e-15 -5.60234e-16 -4.13307e-16 
3.79962e-16 -1.51204e-16 2.19766e-17 1.40633e-17 -1.36302e-17 7.15177e-18 -2.88448e-18 9.80063e-19 -2.92216e-19 7.8232e-20 
-1.90852e-20 4.28662e-21 -8.93218e-22 1.73698e-22 -3.16723e-23 5.4363e-24 -8.81205e-25 1.3527e-25 -1.9711e-26 2.7321e-27 
-3.60861e-28 4.54902e-29 -5.48054e-30 6.31779e-31 -6.97565e-32 7.38331e-33 -7.49676e-34 7.30629e-35 -6.83763e-36 6.14643e-37 
-5.30772e-38 4.40275e-39 -3.54035e-40 6.65276e-42 -1.25121e-40 -5.33281e-40 4.37597e-40 5.07806e-38 8.6635e-37 1.12933e-35 
1.30801e-34 1.41435e-33 1.46037e-32 1.45766e-31 1.41702e-30 1.34814e-29 1.2595e-28 1.15825e-27 1.0503e-26 9.40319e-26 
8.31915e-25 7.27749e-24 6.29693e-23 5.38976e-22 4.56312e-21 3.8202e-20 3.16113e-19 2.58382e-18 2.08451e-17 1.65828e-16 
-3.22636e-15 -9.97583e-15 -3.09936e-14 -9.17947e-14 -2.59769e-13 -7.00921e-13 -1.7997e-12 -4.38741e-12 -1.01297e-11 -2.20864e-11 
-4.53275e-11 -8.72262e-11 -1.56685e-10 -2.61315e-10 -4.01979e-10 -5.65692e-10 -7.20588e-10 -8.19061e-10 -8.13898e-10 -6.84644e-10 
-4.59648e-10 -2.13301e-10 -2.97456e-11 4.74049e-11 3.91403e-11 4.8305e-12 -1.07443e-11 -4.90406e-12 2.5253e-12 1.95267e-12 
-7.77341e-13 -6.16674e-13 3.33624e-13 1.32194e-13 -1.41381e-13 8.30929e-15 3.82596e-14 -2.04043e-14 3.95238e-16 5.0545e-15 
-3.24827e-15 9.70881e-16 3.95347e-17 -2.2572e-16 1.55279e-16 -7.31892e-17 2.79398e-17 -9.17788e-18 2.67529e-18 -7.04995e-19 
1.70063e-19 -3.78924e-20 7.85177e-21 -1.5212e-21 2.76757e-22 -4.74542e-23 7.69212e-24 -1.18184e-24 1.72506e-25 -2.39696e-26 
3.17611e-27 -4.01962e-28 4.86548e-29 -5.6395e-30 6.26589e-31 -6.67948e-32 6.83675e-33 -6.72317e-34 6.35523e-35 -5.77672e-36 
5.05039e-37 -4.24701e-38 3.42575e-39 -3.27737e-40 -6.43564e-40 -6.72582e-39 -6.74906e-38 -6.68325e-37 -6.53754e-36 -6.3219e-35 
-6.04745e-34 -5.72569e-33 -5.36806e-32 -4.98548e-31 -4.58806e-30 -4.18483e-29 -3.78367e-28 -3.39127e-27 -3.01307e-26 -2.65343e-25 
-2.31562e-24 -2.002e-23 -1.71408e-22 -1.45267e-21 -1.21794e-20 -1.00953e-19 -8.2665e-19 -6.68109e-18 -5.32431e-17 -4.17902e-16 
7.60652e-15 2.43913e-14 7.82242e-14 2.39335e-13 6.99815e-13 1.95168e-12 5.18145e-12 1.30669e-11 3.12264e-11 7.05182e-11 
1.50018e-10 2.99543e-10 5.58968e-10 9.69846e-10 1.55491e-09 2.28581e-09 3.05075e-09 3.64827e-09 3.83738e-09 3.45124e-09 
2.52676e-09 1.35146e-09 3.45485e-10 -1.83784e-10 -2.34103e-10 -6.58296e-11 4.93592e-11 3.80549e-11 -8.37781e-12 -1.42543e-11 
2.36696e-12 4.86809e-12 -1.4344e-12 -1.35917e-12 8.55699e-13 1.34998e-13 -3.22122e-13 1.16071e-13 2.88015e-14 -4.88888e-14 
2.40915e-14 -4.51611e-15 -2.32413e-15 2.69364e-15 -1.56211e-15 6.84631e-16 -2.50768e-16 8.02142e-17 -2.29627e-17 5.97517e-18 
-1.42866e-18 3.16382e-19 -6.52914e-20 1.26177e-20 -2.29261e-21 3.92975e-22 -6.37298e-23 9.80302e-24 -1.43345e-24 1.99648e-25 
-2.65324e-26 3.36975e-27 -4.0958e-28 4.77023e-29 -5.32934e-30 5.71681e-31 -5.89296e-32 5.8413e-33 -5.57085e-34 5.11398e-35 
-4.52025e-36 3.8483e-37 -3.15731e-38 2.77161e-39 2.10623e-39 2.25669e-38 2.16894e-37 2.07437e-36 1.97075e-35 1.85983e-34 
1.74329e-33 1.62285e-32 1.50018e-31 1.37691e-30 1.25456e-29 1.13451e-28 1.01802e-27 9.06165e-27 7.9988e-26 6.99913e-25 
6.06846e-24 5.21094e-23 4.42914e-22 3.72407e-21 3.09535e-20 2.54128e-19 2.05905e-18 1.6448e-17 1.29392e-16 1.0011e-15 
-1.69879e-14 -5.65075e-14 -1.87152e-13 -5.91732e-13 -1.78828e-12 -5.15601e-12 -1.41564e-11 -3.6936e-11 -9.13681e-11 -2.13718e-10 
-4.71277e-10 -9.76307e-10 -1.89232e-09 -3.41497e-09 -5.70436e-09 -8.75573e-09 -1.22356e-08 -1.53784e-08 -1.70935e-08 -1.63868e-08 
-1.29947e-08 -7.83204e-09 -2.75704e-09 4.49457e-10 1.23915e-09 5.51794e-10 -1.69905e-10 -2.46452e-10 2.30487e-12 8.83889e-11 
2.75877e-12 -3.23869e-11 3.18005e-12 1.09052e-11 -4.23387e-12 -2.16011e-12 2.31695e-12 -4.79609e-13 -4.27613e-13 4.02563e-13 
-1.5249e-13 4.26753e-15 3.40733e-14 -2.72823e-14 1.42245e-14 -5.91012e-15 2.09597e-15 -6.56396e-16 1.85226e-16 -4.77299e-17 
1.1338e-17 -2.50041e-18 5.14757e-19 -9.93647e-20 1.80509e-20 -3.09573e-21 5.02583e-22 -7.74256e-23 1.13431e-23 -1.58342e-24 
2.10984e-25 -2.68775e-26 3.27828e-27 -3.83343e-28 4.30249e-29 -4.63966e-30 4.81141e-31 -4.8018e-32 4.6148e-33 -4.27302e-34 
3.81334e-35 -3.28021e-36 2.71462e-37 -2.19064e-38 -4.75385e-39 -5.88304e-38 -5.65376e-37 -5.39063e-36 -5.10823e-35 -4.80922e-34 
-4.49766e-33 -4.17763e-32 -3.85315e-31 -3.52812e-30 -3.20629e-29 -2.89113e-28 -2.58582e-27 -2.29318e-26 -2.01564e-25 -1.7552e-24 
-1.51343e-23 -1.29146e-22 -1.08995e-21 -9.09174e-21 -7.48959e-20 -6.08783e-19 -4.8779e-18 -3.84843e-17 -2.98579e-16 -2.2747e-15 
3.58391e-14 1.23708e-13 4.23347e-13 1.3838e-12 4.3239e-12 1.28925e-11 3.66165e-11 9.88621e-11 2.53177e-10 6.13425e-10 
1.40214e-09 3.01345e-09 6.06585e-09 1.13832e-08 1.98047e-08 3.17259e-08 4.6392e-08 6.1227e-08 7.1815e-08 7.32005e-08 
6.25456e-08 4.18409e-08 1.82902e-08 8.01585e-10 -5.74803e-09 -3.70678e-09 2.19344e-10 1.36949e-09 2.51422e-10 -4.69662e-10 
-1.13737e-10 1.84937e-10 1.87858e-11 -7.37068e-11 1.47491e-11 2.08479e-11 -1.43572e-11 4.94102e-13 4.26803e-12 -2.88631e-12 
7.73754e-13 2.17011e-13 -3.69199e-13 2.45299e-13 -1.18726e-13 4.73437e-14 -1.63653e-14 5.04031e-15 -1.40694e-15 3.60079e-16 
-8.51985e-17 1.87539e-17 -3.85922e-18 7.45388e-19 -1.35578e-19 2.32901e-20 -3.78825e-21 5.84783e-22 -8.58529e-23 1.20106e-23 
-1.604e-24 2.04833e-25 -2.50505e-26 2.93806e-27 -3.3089e-28 3.58244e-29 -3.73229e-30 3.74494e-31 -3.62157e-32 3.37742e-33 
-3.0389e-34 2.6397e-35 -2.21952e-36 1.86026e-37 -2.79653e-39 1.45187e-37 1.36619e-36 1.30667e-35 1.24018e-34 1.16898e-33 
1.09404e-32 1.01644e-31 9.37232e-31 8.57475e-30 7.78177e-29 7.00292e-28 6.24695e-27 5.52171e-26 4.83395e-25 4.1893e-24 
3.59214e-23 3.0456e-22 2.55155e-21 2.11063e-20 1.72238e-19 1.38526e-18 1.09683e-17 8.53898e-17 6.5269e-16 4.89e-15 
-7.11979e-14 -2.5515e-13 -9.02759e-13 -3.05217e-12 -9.865e-12 -3.04301e-11 -8.94293e-11 -2.49915e-10 -6.62687e-10 -1.66334e-09 
-3.94105e-09 -8.78674e-09 -1.83662e-08 -3.58333e-08 -6.49142e-08 -1.08485e-07 -1.65901e-07 -2.29725e-07 -2.83984e-07 -3.07127e-07 
-2.81587e-07 -2.06856e-07 -1.06659e-07 -2.00615e-08 2.26383e-08 2.12911e-08 2.72165e-09 -6.5183e-09 -2.61908e-09 2.09917e-09 
1.10341e-09 -8.99191e-10 -3.18785e-10 4.28904e-10 -5.50556e-12 -1.59887e-10 7.5267e-11 1.58727e-11 -3.47322e-11 1.80142e-11 
-2.42978e-12 -3.33718e-12 3.3811e-12 -1.99771e-12 9.1457e-13 -3.53083e-13 1.19621e-13 -3.63868e-14 1.00844e-14 -2.57203e-15 
6.08079e-16 -1.33984e-16 2.76317e-17 -5.35215e-18 9.76576e-19 -1.68297e-19 2.74579e-20 -4.25046e-21 6.25569e-22 -8.77061e-23 
1.17355e-23 -1.50123e-24 1.839e-25 -2.16059e-26 2.43797e-27 -2.64554e-28 2.76392e-29 -2.7829e-30 2.70273e-31 -2.53363e-32 
2.2937e-33 -2.00525e-34 1.68706e-35 -1.32955e-36 4.06922e-38 -3.13595e-37 -3.13952e-36 -3.00021e-35 -2.85498e-34 -2.69605e-33 
-2.52648e-32 -2.3489e-31 -2.16605e-30 -1.98064e-29 -1.79532e-28 -1.61259e-27 -1.43479e-26 -1.264e-25 -1.10201e-24 -9.50339e-24 
-8.10145e-23 -6.82257e-22 -5.67163e-21 -4.65026e-20 -3.75699e-19 -2.98763e-18 -2.33559e-17 -1.79239e-16 -1.34807e-15 -9.91729e-15 
1.32704e-13 4.94061e-13 1.80866e-12 6.32887e-12 2.11708e-11 6.75918e-11 2.05625e-10 5.94949e-10 1.63387e-09 4.24899e-09 
1.04363e-08 2.41375e-08 5.23844e-08 1.06237e-07 2.00334e-07 3.49136e-07 5.58071e-07 8.10188e-07 1.0544e-06 1.20776e-06 
1.18425e-06 9.4783e-07 5.59453e-07 1.69099e-07 -6.90933e-08 -1.0674e-07 -3.18296e-08 2.5757e-08 1.8417e-08 -7.3783e-09 
-7.69175e-09 3.57196e-09 2.74286e-09 -2.14229e-09 -4.65803e-10 1.041e-09 -3.1218e-10 -2.13222e-10 2.42952e-10 -9.56679e-11 
-6.22438e-12 3.42695e-11 -2.73679e-11 1.48872e-11 -6.52695e-12 2.45656e-12 -8.19947e-13 2.47474e-13 -6.83953e-14 1.74579e-14 
-4.14067e-15 9.16686e-16 -1.901e-16 3.70362e-17 -6.79625e-18 1.17739e-18 -1.92987e-19 2.99915e-20 -4.42796e-21 6.22291e-22 
-8.34047e-23 1.06805e-23 -1.30909e-24 1.53834e-25 -1.73597e-26 1.884e-27 -1.96908e-28 1.98436e-29 -1.93026e-30 1.814e-31 
-1.6483e-32 1.44995e-33 -1.24198e-34 1.07683e-35 -1.08121e-36 9.38465e-37 6.70856e-36 6.53729e-35 6.23315e-34 5.8987e-33 
5.53589e-32 5.15118e-31 4.75115e-30 4.34243e-29 3.93155e-28 3.52474e-27 3.12781e-26 2.746e-25 2.38387e-24 2.04516e-23 
1.73283e-22 1.44892e-21 1.19463e-20 9.70314e-20 7.75571e-19 6.09297e-18 4.6981e-17 3.54971e-16 2.62304e-15 1.89133e-14 
-2.31072e-13 -8.94517e-13 -3.39124e-12 -1.22912e-11 -4.25818e-11 -1.40796e-10 -4.43602e-10 -1.32944e-09 -3.78234e-09 -1.01933e-08 
-2.59568e-08 -6.22777e-08 -1.4032e-07 -2.95746e-07 -5.8036e-07 -1.05433e-06 -1.7606e-06 -2.67785e-06 -3.66532e-06 -4.43989e-06 
-4.64313e-06 -4.02469e-06 -2.66771e-06 -1.06765e-06 1.04386e-07 4.67726e-07 2.24681e-07 -7.61165e-08 -1.04067e-07 1.54274e-08 
4.37925e-08 -1.00648e-08 -1.81381e-08 8.91912e-09 5.11131e-09 -5.87084e-09 7.70699e-10 1.85851e-09 -1.4851e-09 4.023e-10 
1.88973e-10 -2.88933e-10 1.99667e-10 -1.02054e-10 4.3245e-11 -1.59687e-11 5.28093e-12 -1.59029e-12 4.40729e-13 -1.13195e-13 
2.7072e-14 -6.05007e-15 1.26689e-15 -2.4916e-16 4.61226e-17 -8.05272e-18 1.32874e-18 -2.07622e-19 3.07823e-20 -4.33884e-21 
5.82554e-22 -7.46486e-23 9.14636e-24 -1.07354e-24 1.20923e-25 -1.30938e-26 1.36521e-27 -1.37264e-28 1.33269e-29 -1.25091e-30 
1.1361e-31 -9.98041e-33 8.41591e-34 -6.42814e-35 2.27161e-36 -3.3113e-37 -1.46019e-35 -1.34407e-34 -1.28871e-33 -1.22221e-32 
-1.14892e-31 -1.07012e-30 -9.87303e-30 -9.01992e-29 -8.15701e-28 -7.2989e-27 -6.45927e-26 -5.65051e-25 -4.88338e-24 -4.16681e-23 
-3.5077e-22 -2.91087e-21 -2.37904e-20 -1.91296e-19 -1.5115e-18 -1.17195e-17 -8.90233e-17 -6.6126e-16 -4.7922e-15 -3.37917e-14 
3.7397e-13 1.50702e-12 5.92333e-12 2.22582e-11 7.99324e-11 2.73923e-10 8.94415e-10 2.7779e-09 8.19118e-09 2.28833e-08 
6.04241e-08 1.50401e-07 3.51796e-07 7.70438e-07 1.57286e-06 2.97736e-06 5.19125e-06 8.26666e-06 1.18893e-05 1.52094e-05 
1.69253e-05 1.5815e-05 1.16186e-05 5.68129e-06 5.32001e-07 -1.76511e-06 -1.25415e-06 9.09766e-08 4.9296e-07 3.16475e-08 
-2.10653e-07 5.18903e-09 1.0024e-07 -2.81861e-08 -3.78319e-08 2.86508e-08 2.04182e-09 -1.30712e-08 7.92021e-09 -9.86111e-10 
-2.02872e-09 2.12074e-09 -1.32531e-09 6.45196e-10 -2.6633e-10 9.71418e-11 -3.20482e-11 9.69773e-12 -2.71416e-12 7.06155e-13 
-1.7134e-13 3.88609e-14 -8.25458e-15 1.64512e-15 -3.08191e-16 5.43726e-17 -9.05149e-18 1.4246e-18 -2.12402e-19 3.0059e-20 
-4.04574e-21 5.18896e-22 -6.35433e-23 7.44406e-24 -8.35865e-25 9.0131e-26 -9.35045e-27 9.34956e-28 -9.0259e-29 8.42605e-30 
-7.61909e-31 6.69289e-32 -5.78536e-33 5.27707e-34 -6.62672e-35 1.87268e-35 2.14509e-35 2.64375e-34 2.51653e-33 2.39349e-32 
2.25395e-31 2.10166e-30 1.93973e-29 1.77145e-28 1.60012e-27 1.42895e-26 1.26098e-25 1.09896e-24 9.45286e-24 8.01944e-23 
6.70465e-22 5.51905e-21 4.46847e-20 3.55421e-19 2.77347e-18 2.11986e-17 1.58409e-16 1.15472e-15 8.18908e-15 5.63145e-14 
-5.59032e-13 -2.34865e-12 -9.58429e-12 -3.7387e-11 -1.39329e-10 -4.9536e-10 -1.67769e-09 -5.4039e-09 -1.65244e-08 -4.78748e-08 
-1.31123e-07 -3.38641e-07 -8.22292e-07 -1.87091e-06 -3.97238e-06 -7.83192e-06 -1.42503e-05 -2.37416e-05 -3.58465e-05 -4.83675e-05 
-5.71634e-05 -5.73656e-05 -4.6274e-05 -2.64961e-05 -6.22522e-06 5.49896e-06 5.90068e-06 7.69467e-07 -1.95981e-06 -5.7019e-07 
8.56987e-07 1.70992e-07 -4.75036e-07 4.15991e-08 2.26829e-07 -1.18419e-07 -4.36988e-08 7.85738e-08 -3.61269e-08 -3.17146e-09 
1.63075e-08 -1.38728e-08 8.03768e-09 -3.76557e-09 1.52619e-09 -5.54357e-10 1.84066e-10 -5.64746e-11 1.6099e-11 -4.27518e-12 
1.05909e-12 -2.45032e-13 5.3012e-14 -1.07409e-14 2.04166e-15 -3.64775e-16 6.1381e-17 -9.74753e-18 1.46383e-18 -2.08302e-19 
2.81429e-20 -3.61717e-21 4.43134e-22 -5.18454e-23 5.80412e-24 -6.22964e-25 6.42309e-26 -6.37438e-27 6.10095e-28 -5.64202e-29 
5.04865e-30 -4.36671e-31 3.59114e-32 -2.49225e-33 -7.35733e-36 8.1529e-35 -8.93347e-35 -4.66596e-34 -4.64171e-33 -4.42011e-32 
-4.17071e-31 -3.8936e-30 -3.59521e-29 -3.28216e-28 -2.96122e-27 -2.63902e-26 -2.32187e-25 -2.01553e-24 -1.72502e-23 -1.45448e-22 
-1.2071e-21 -9.8504e-21 -7.89467e-20 -6.20577e-19 -4.777e-18 -3.59427e-17 -2.63759e-16 -1.88276e-15 -1.30305e-14 -8.70834e-14 
7.65816e-13 3.36126e-12 1.42671e-11 5.78693e-11 2.24133e-10 8.27809e-10 2.91141e-09 9.73518e-09 3.08964e-08 9.28905e-08 
2.64008e-07 7.07642e-07 1.78393e-06 4.21634e-06 9.30794e-06 1.91051e-05 3.62542e-05 6.31454e-05 9.99972e-05 0.000142145 
0.000178108 0.000191384 0.000168334 0.000110022 3.86619e-05 -1.24265e-05 -2.38312e-05 -7.6118e-06 6.31746e-06 3.82805e-06 
-2.87155e-06 -1.46174e-06 1.93741e-06 2.4764e-07 -1.15933e-06 3.88723e-07 3.66684e-07 -4.11399e-07 1.33116e-07 6.46521e-08 
-1.10092e-07 8.17079e-08 -4.45974e-08 2.02924e-08 -8.15057e-09 2.97968e-09 -1.00703e-09 3.16648e-10 -9.27786e-11 2.53249e-11 
-6.43799e-12 1.52475e-12 -3.36784e-13 6.94876e-14 -1.34191e-14 2.43074e-15 -4.13919e-16 6.64069e-17 -1.00593e-17 1.44169e-18 
-1.95886e-19 2.52809e-20 -3.10495e-21 3.63574e-22 -4.06631e-23 4.35193e-24 -4.46536e-25 4.40115e-26 -4.17531e-27 3.82087e-28 
-3.38202e-29 2.9134e-30 -2.50604e-31 2.41737e-32 -3.57441e-33 9.40868e-34 -2.2437e-34 9.35209e-34 8.00061e-33 7.68173e-32 
7.26226e-31 6.78873e-30 6.27167e-29 5.72367e-28 5.15767e-27 4.58657e-26 4.02266e-25 3.47722e-24 2.96011e-23 2.47946e-22 
2.04147e-21 1.6503e-20 1.30809e-19 1.01506e-18 7.69721e-18 5.6914e-17 4.09272e-16 2.85312e-15 1.92042e-14 1.24164e-13 
-9.51545e-13 -4.37569e-12 -1.93665e-11 -8.18611e-11 -3.3017e-10 -1.26907e-09 -4.64223e-09 -1.61365e-08 -5.32129e-08 -1.66176e-07 
-4.90448e-07 -1.36497e-06 -3.57323e-06 -8.7728e-06 -2.01308e-05 -4.2996e-05 -8.50347e-05 -0.000154708 -0.000256702 -0.000383955 
-0.000509248 -0.000584433 -0.000557545 -0.000409103 -0.000185982 7.79236e-06 8.24165e-05 4.35198e-05 -1.46057e-05 -1.85689e-05 
7.28877e-06 8.04439e-06 -6.72057e-06 -2.7849e-06 5.13739e-06 -7.91501e-07 -2.29693e-06 1.87934e-06 -3.23402e-07 -5.55246e-07 
6.48345e-07 -4.34912e-07 2.26269e-07 -1.00992e-07 4.06895e-08 -1.51807e-08 5.29265e-09 -1.72426e-09 5.23211e-10 -1.47457e-10 
3.8551e-11 -9.35319e-12 2.10912e-12 -4.43009e-13 8.68931e-14 -1.59568e-14 2.75046e-15 -4.46089e-16 6.82325e-17 -9.86387e-18 
1.3504e-18 -1.75411e-19 2.16574e-20 -2.54597e-21 2.85444e-22 -3.05722e-23 3.13323e-24 -3.07794e-25 2.90337e-26 -2.63442e-27 
2.30197e-28 -1.93046e-29 1.50633e-30 -8.73605e-32 -6.21697e-33 5.25419e-33 -2.17246e-33 -6.72905e-34 -1.3267e-32 -1.25198e-31 
-1.18701e-30 -1.11118e-29 -1.02713e-28 -9.37066e-28 -8.43315e-27 -7.48214e-26 -6.54011e-25 -5.62776e-24 -4.76321e-23 -3.96139e-22 
-3.23357e-21 -2.58721e-20 -2.02596e-19 -1.54986e-18 -1.15581e-17 -8.38093e-17 -5.89021e-16 -3.99651e-15 -2.60455e-14 -1.61936e-13 
1.05732e-12 5.11537e-12 2.36897e-11 1.04677e-10 4.40887e-10 1.768e-09 6.74144e-09 2.44072e-08 8.37709e-08 2.72102e-07 
8.3485e-07 2.41442e-06 6.56637e-06 1.67488e-05 3.99424e-05 8.87278e-05 0.000182751 0.000346961 0.000602512 0.000946997 
0.0013274 0.00162339 0.00167281 0.00136237 0.000750472 0.000107862 -0.000238859 -0.000192103 9.90201e-06 7.13747e-05 
-9.6322e-06 -3.45049e-05 1.91899e-05 1.68862e-05 -1.97717e-05 -1.05293e-06 1.19332e-05 -7.3994e-06 -2.03777e-07 3.59231e-06 
-3.37988e-06 2.09162e-06 -1.04805e-06 4.64717e-07 -1.90931e-07 7.39441e-08 -2.69574e-08 9.17441e-09 -2.89313e-09 8.42087e-10 
-2.26083e-10 5.60728e-11 -1.28811e-11 2.74931e-12 -5.46956e-13 1.01738e-13 -1.77448e-14 2.9099e-15 -4.49734e-16 6.56549e-17 
-9.07172e-18 1.18858e-18 -1.47918e-19 1.7513e-20 -1.97562e-21 2.12654e-22 -2.18721e-23 2.15263e-24 -2.03031e-25 1.83834e-26 
-1.60259e-27 1.35707e-28 -1.15985e-29 1.16192e-30 -1.83957e-31 4.69376e-32 -1.39503e-32 6.28952e-33 1.86605e-32 1.9152e-31 
1.81611e-30 1.70279e-29 1.57494e-28 1.43632e-27 1.29083e-26 1.14242e-25 9.94946e-25 8.5195e-24 7.16548e-23 5.91294e-22 
4.78105e-21 3.78221e-20 2.92211e-19 2.20015e-18 1.61029e-17 1.14208e-16 7.81851e-16 5.14058e-15 3.22457e-14 1.91205e-13 
-1.02901e-12 -5.27184e-12 -2.56789e-11 -1.1916e-10 -5.26256e-10 -2.20972e-09 -8.81122e-09 -3.33207e-08 -1.19324e-07 -4.0398e-07 
-1.29071e-06 -3.88398e-06 -1.09838e-05 -2.91197e-05 -7.21723e-05 -0.000166675 -0.000357225 -0.000706911 -0.00128293 -0.0021156 
-0.00312849 -0.00406869 -0.00451338 -0.00404707 -0.00260656 -0.00075173 0.000547544 0.00069756 0.000120396 -0.000218128 
-2.59176e-05 0.000120098 -4.1495e-05 -7.83788e-05 6.54425e-05 2.15158e-05 -5.31324e-05 2.42787e-05 8.43719e-06 -1.93543e-05 
1.56644e-05 -9.06145e-06 4.42362e-06 -1.98378e-06 8.49262e-07 -3.4758e-07 1.33808e-07 -4.76888e-08 1.5597e-08 -4.67006e-09 
1.28208e-09 -3.23799e-10 7.55356e-11 -1.63424e-11 3.29185e-12 -6.19524e-13 1.09281e-13 -1.8119e-14 2.83085e-15 -4.17711e-16 
5.83291e-17 -7.72207e-18 9.70814e-19 -1.16076e-19 1.32177e-20 -1.43528e-21 1.48803e-22 -1.47467e-23 1.39853e-24 -1.27041e-25 
1.10501e-26 -9.13691e-28 6.86859e-29 -3.43831e-30 -4.12393e-31 2.49349e-31 -8.47208e-32 2.19446e-32 -3.49626e-32 -2.70648e-31 
-2.59429e-30 -2.4358e-29 -2.25433e-28 -2.05505e-27 -1.84406e-26 -1.62761e-25 -1.41184e-24 -1.20242e-23 -1.00434e-22 -8.21677e-22 
-6.57452e-21 -5.13574e-20 -3.90847e-19 -2.89053e-18 -2.07097e-17 -1.43191e-16 -9.50738e-16 -6.02237e-15 -3.60677e-14 -2.01548e-13 
8.47758e-13 4.65177e-12 2.4038e-11 1.18013e-10 5.50036e-10 2.43202e-09 1.01917e-08 4.04319e-08 1.51641e-07 5.36852e-07 
1.79103e-06 5.62012e-06 1.65535e-05 4.56622e-05 0.000117667 0.000282444 0.000629384 0.00129642 0.00245452 0.00423804 
0.00659778 0.00910433 0.0108409 0.0106404 0.00784247 0.00324201 -0.000820441 -0.00211353 -0.000828004 0.000495552 
0.00023962 -0.000336746 4.89694e-05 0.000300354 -0.000181653 -0.000137822 0.00020455 -6.05978e-05 -6.3093e-05 8.96316e-05 
-6.44195e-05 3.51776e-05 -1.6999e-05 7.91074e-06 -3.61816e-06 1.58641e-06 -6.46174e-07 2.40067e-07 -8.08909e-08 2.47554e-08 
-6.91165e-09 1.76997e-09 -4.17956e-10 9.14527e-11 -1.86233e-11 3.543e-12 -6.31818e-13 1.05923e-13 -1.67369e-14 2.4982e-15 
-3.52951e-16 4.7283e-17 -6.01576e-18 7.27931e-19 -8.38816e-20 9.21586e-21 -9.66435e-22 9.68334e-23 -9.27993e-24 8.51729e-25 
-7.50849e-26 6.42495e-27 -5.57255e-28 5.67162e-29 -8.67478e-30 1.98812e-30 -5.2885e-31 1.44417e-31 1.57142e-33 3.69555e-31 
3.44498e-30 3.24231e-29 3.00251e-28 2.73566e-27 2.45055e-26 2.15637e-25 1.86222e-24 1.57653e-23 1.30674e-22 1.05887e-21 
8.37354e-21 6.44885e-20 4.82478e-19 3.49598e-18 2.444e-17 1.64043e-16 1.05039e-15 6.35979e-15 3.59464e-14 1.85858e-13 
-5.53375e-13 -3.33151e-12 -1.85735e-11 -9.78171e-11 -4.86719e-10 -2.2884e-09 -1.01628e-08 -4.26004e-08 -1.68374e-07 -6.26664e-07 
-2.19294e-06 -7.20263e-06 -2.21611e-05 -6.37404e-05 -0.000170989 -0.000426743 -0.000988065 -0.00211522 -0.00416841 -0.00751532 
-0.0122819 -0.0179329 -0.0228576 -0.0244515 -0.0203495 -0.0107781 -0.000136681 0.00529419 0.00343607 -0.000599932 
-0.000986867 0.000720474 7.53734e-05 -0.000973721 0.000398454 0.000635816 -0.000677912 7.56607e-05 0.000330835 -0.000360093 
0.000233475 -0.000121514 5.95918e-05 -2.97954e-05 1.48891e-05 -7.01712e-06 3.00229e-06 -1.15143e-06 3.96212e-07 -1.23077e-07 
3.47668e-08 -8.99405e-09 2.14426e-09 -4.7369e-10 9.74164e-11 -1.87251e-11 3.37559e-12 -5.72386e-13 9.1526e-14 -1.38318e-14 
1.97939e-15 -2.6869e-16 3.46498e-17 -4.25077e-18 4.96693e-19 -5.53404e-20 5.8853e-21 -5.97943e-22 5.80825e-23 -5.39578e-24 
4.78598e-25 -4.01138e-26 3.01857e-27 -1.48486e-28 -1.62924e-29 9.11703e-30 -2.77676e-30 7.23459e-31 -2.2179e-31 -4.03521e-31 
-4.25592e-30 -4.00172e-29 -3.70801e-28 -3.37616e-27 -3.01826e-26 -2.64686e-25 -2.27442e-24 -1.91262e-23 -1.57169e-22 -1.25989e-21 
-9.83192e-21 -7.45083e-20 -5.46666e-19 -3.86862e-18 -2.62799e-17 -1.70288e-16 -1.04349e-15 -5.97187e-15 -3.13017e-14 -1.45187e-13 
2.38601e-13 1.7028e-12 1.07227e-11 6.26643e-11 3.41626e-10 1.7433e-09 8.34165e-09 3.74537e-08 1.57788e-07 6.2333e-07 
2.30653e-06 7.9832e-06 2.58002e-05 7.77055e-05 0.000217645 0.000565649 0.00136092 0.00302352 0.0061842 0.0115972 
0.01981 0.0304837 0.0414549 0.0481724 0.0449045 0.0289403 0.00591984 -0.0106109 -0.010782 -0.00112099 
0.00274279 -0.000967436 -0.000606295 0.00268902 -0.000571326 -0.00236685 0.00190153 0.000255611 -0.00139102 0.00125203 
-0.000736801 0.000370508 -0.000192029 0.000107336 -5.91936e-05 2.96993e-05 -1.31658e-05 5.15214e-06 -1.79501e-06 5.62525e-07 
-1.60086e-07 4.17133e-08 -1.0021e-08 2.23235e-09 -4.6337e-10 8.99821e-11 -1.6403e-11 2.81505e-12 -4.55943e-13 6.98431e-14 
-1.01375e-14 1.39647e-15 -1.82835e-16 2.27807e-17 -2.70432e-18 3.06184e-19 -3.30946e-20 3.41796e-21 -3.37611e-22 3.19384e-23 
-2.90407e-24 2.5698e-25 -2.3123e-26 2.3951e-27 -3.43241e-28 6.84647e-29 -1.57759e-29 3.6783e-30 -7.71864e-31 6.79032e-31 
4.79909e-30 4.56365e-29 4.22972e-28 3.84775e-27 3.4318e-26 2.99771e-25 2.56134e-24 2.13758e-23 1.73945e-22 1.37737e-21 
1.05871e-20 7.87581e-20 5.64927e-19 3.88881e-18 2.55318e-17 1.58534e-16 9.19768e-16 4.89332e-15 2.31095e-14 9.05165e-14 
-6.43822e-15 -3.2065e-13 -3.17011e-12 -2.42135e-11 -1.59451e-10 -9.41965e-10 -5.08328e-09 -2.52913e-08 -1.16582e-07 -4.99062e-07 
-1.98567e-06 -7.34161e-06 -2.51996e-05 -8.01804e-05 -0.000236055 -0.000641728 -0.00160767 -0.0037046 -0.00783891 -0.0152048 
-0.0269577 -0.0434179 -0.0626682 -0.0788686 -0.0820337 -0.0627499 -0.0230815 0.0157262 0.0267777 0.00949405 
-0.00501043 -0.000167021 0.00175407 -0.00632252 -7.88708e-05 0.00732982 -0.00434945 -0.00227928 0.00485453 -0.00372499 
0.00198683 -0.000990459 0.000577484 -0.000372314 0.00022445 -0.000117622 5.31917e-05 -2.10107e-05 7.35712e-06 -2.3142e-06 
6.61149e-07 -1.731e-07 4.18373e-08 -9.39023e-09 1.96675e-09 -3.8594e-10 7.11913e-11 -1.23786e-11 2.03361e-12 -3.16279e-13 
4.66469e-14 -6.53386e-15 8.70326e-16 -1.10374e-16 1.3341e-17 -1.53837e-18 1.69379e-19 -1.78203e-20 1.79247e-21 -1.72333e-22 
1.57889e-23 -1.35999e-24 1.04177e-25 -5.25648e-27 -4.5808e-28 2.53617e-28 -7.02127e-29 1.644e-29 -3.58848e-30 1.87484e-31 
-5.19923e-30 -4.78385e-29 -4.43805e-28 -4.0324e-27 -3.58645e-26 -3.11857e-25 -2.64732e-24 -2.19019e-23 -1.76241e-22 -1.37604e-21 
-1.03938e-20 -7.5674e-20 -5.28606e-19 -3.52125e-18 -2.21856e-17 -1.30668e-16 -7.06649e-16 -3.40357e-15 -1.37257e-14 -3.88376e-14 
-8.81158e-14 -4.00957e-13 -1.53447e-12 -3.68107e-12 7.57751e-12 1.78799e-10 1.53694e-09 1.00551e-08 5.61776e-08 2.78887e-07 
1.2519e-06 5.12406e-06 1.91962e-05 6.59038e-05 0.000207279 0.000596475 0.00156775 0.00375755 0.00820526 0.0163316 
0.0296828 0.0493417 0.0747534 0.101419 0.11783 0.106279 0.0561004 -0.0133735 -0.0525357 -0.0333105 
0.00325649 0.00499802 -0.00252922 0.0126283 0.00366391 -0.0189285 0.00742653 0.00987547 -0.0141087 0.00927734 
-0.00444472 0.00232116 -0.00165195 0.00123272 -0.000791095 0.000423682 -0.00019271 7.61256e-05 -2.66184e-05 8.36427e-06 
-2.3903e-06 6.27144e-07 -1.52217e-07 3.43854e-08 -7.2648e-09 1.44117e-09 -2.69294e-10 4.75193e-11 -7.93515e-12 1.25613e-12 
-1.88774e-13 2.69664e-14 -3.66571e-15 4.74657e-16 -5.85981e-17 6.90298e-18 -7.76586e-19 8.35027e-20 -8.59053e-21 8.47196e-22 
-8.05025e-23 7.48447e-24 -7.11403e-25 7.63251e-26 -1.04393e-26 1.82717e-27 -3.62203e-28 7.31899e-29 -1.43196e-29 3.20213e-30 
4.37357e-30 4.60656e-29 4.26371e-28 3.86804e-27 3.42873e-26 2.96558e-25 2.49855e-24 2.04646e-23 1.62562e-22 1.24874e-21 
9.24258e-21 6.56159e-20 4.44166e-19 2.84404e-18 1.70328e-17 9.38008e-17 4.61723e-16 1.92199e-15 5.84274e-15 4.60664e-15 
6.85819e-14 4.39301e-13 2.54358e-12 1.33474e-11 6.28653e-11 2.59764e-10 8.90705e-10 2.10392e-09 -6.1978e-10 -4.64795e-08 
-3.612e-07 -2.00008e-06 -9.1927e-06 -3.67475e-05 -0.000130157 -0.000411562 -0.00116445 -0.00294711 -0.00666567 -0.0134816 
-0.0245133 -0.0405967 -0.0624114 -0.0899169 -0.117942 -0.128176 -0.0920543 -0.00422073 0.078889 0.0795201 
0.0144101 -0.0142536 -0.00133431 -0.0214731 -0.0135744 0.0401214 -0.00676976 -0.0307335 0.0336255 -0.0185966 
0.00784995 -0.00485297 0.0045323 -0.00378679 0.00250318 -0.00134349 0.00060717 -0.000237773 8.24335e-05 -2.57165e-05 
7.31133e-06 -1.91348e-06 4.64704e-07 -1.05396e-07 2.24362e-08 -4.50032e-09 8.53091e-10 -1.5317e-10 2.60918e-11 -4.22215e-12 
6.49677e-13 -9.5137e-14 1.32679e-14 -1.7634e-15 2.23499e-16 -2.70303e-17 3.12134e-18 -3.44315e-19 3.62854e-20 -3.64865e-21 
3.48193e-22 -3.09561e-23 2.40281e-24 -1.18233e-25 -1.05438e-26 5.26199e-27 -1.3127e-27 2.73759e-28 -5.21116e-29 8.83683e-30 
-5.81146e-30 -4.00192e-29 -3.73345e-28 -3.37953e-27 -2.98361e-26 -2.56447e-25 -2.14175e-24 -1.73393e-23 -1.35687e-22 -1.02273e-21 
-7.39188e-21 -5.09359e-20 -3.32062e-19 -2.02612e-18 -1.1387e-17 -5.74312e-17 -2.47573e-16 -8.10175e-16 -1.13092e-15 7.99864e-15 
-1.0724e-14 -1.38355e-13 -1.16841e-12 -8.27442e-12 -5.15375e-11 -2.87805e-10 -1.45088e-09 -6.59823e-09 -2.68628e-08 -9.61701e-08 
-2.91024e-07 -6.68311e-07 -6.42415e-07 4.00982e-06 3.17069e-05 0.00014406 0.000506337 0.00146992 0.00358832 0.00736737 
0.0126372 0.0181314 0.0229176 0.0302944 0.0485428 0.0774869 0.0863153 0.0274588 -0.0846544 -0.136332 
-0.0616526 0.0203196 0.0170947 0.0314852 0.0313465 -0.0672073 -0.00794818 0.072671 -0.0633726 0.027739 
-0.00993127 0.00946386 -0.0116614 0.0103187 -0.0068202 0.00360761 -0.00160015 0.000614189 -0.000208673 6.38471e-05 
-1.78367e-05 4.60156e-06 -1.10656e-06 2.49935e-07 -5.33362e-08 1.07998e-08 -2.08076e-09 3.82055e-10 -6.6898e-11 1.11718e-11 
-1.77903e-12 2.70075e-13 -3.90802e-14 5.39007e-15 -7.08705e-16 8.88616e-17 -1.06308e-17 1.21447e-18 -1.32689e-19 1.39118e-20 
-1.41119e-21 1.41283e-22 -1.45798e-23 1.66636e-24 -2.24796e-25 3.54517e-26 -6.07879e-27 1.05842e-27 -1.80139e-28 2.98545e-29 
-1.25338e-30 3.2683e-29 2.96259e-28 2.67583e-27 2.35086e-26 2.00579e-25 1.65815e-24 1.3244e-23 1.01852e-22 7.50913e-22 
5.27791e-21 3.51058e-20 2.18733e-19 1.25781e-18 6.52056e-18 2.92235e-17 1.03213e-16 2.05658e-16 -4.86443e-16 -5.93381e-15 