# vtk DataFile Version 2.0
Titre
ASCII
DATASET STRUCTURED_POINTS
DIMENSIONS 100 100 1
ORIGIN 0.0 0.0 0.0
SPACING 0.1 0.1 0.0
POINT_DATA 10000 
SCALARS rho float
LOOKUP_TABLE default
0.00288089 -5.09251e-05 0.000241303 -6.65795e-05 0.00047093 0.00103238 0.000439661 0.000269262 0.00051515 0.000579804 
0.000221008 -0.000115365 8.60412e-05 0.000198321 -0.000146976 -0.000460051 -0.000187993 0.000210114 0.000343583 0.000423299 
0.000351433 -0.000395989 -0.00198073 -0.00335189 -0.00297297 -0.000352404 0.00299448 0.00490682 0.00438887 0.00199758 
-0.000712228 -0.00238178 -0.00251725 -0.00147789 -3.91515e-05 0.00103421 0.00138479 0.000983642 0.000174283 -0.00065987 
-0.00119303 -0.00128458 -0.000965114 -0.000401978 0.000223795 0.000731465 0.00104024 0.00110508 0.000977917 0.000700984 
0.000362962 1.17534e-05 -0.000300515 -0.00055155 -0.000734146 -0.000842564 -0.000893066 -0.000883402 -0.000835737 -0.000747943 
-0.000631463 -0.000480305 -0.000287429 -4.69652e-05 0.00022588 0.000495629 0.000713755 0.000826563 0.000823954 0.000788223 
0.000790107 0.000801011 0.000817425 0.000893404 0.0010176 0.00102969 0.000837439 0.00051194 0.000143885 -0.000249516 
-0.000634174 -0.000771549 -0.000564667 -2.53284e-05 0.000467496 0.000734921 0.000699878 0.00041409 0.000167386 -0.000218682 
-0.000393399 -0.000590269 -0.000575119 -0.000340631 -6.11612e-05 0.000154116 0.000179326 -9.34783e-05 0.000791971 0.00150744 
-0.000464878 -0.00347926 -0.000111888 -0.000505791 0.00111238 0.000779547 2.21028e-05 0.000253783 0.000436345 0.000240428 
-0.000209885 -0.000168433 5.95962e-05 -9.12442e-06 -0.000238685 -7.82355e-05 0.000120135 0.000173385 0.000591329 0.000534871 
-0.00101179 -0.00333154 -0.00385699 -0.000855333 0.00439171 0.00793829 0.00667471 0.00158163 -0.00392827 -0.00668229 
-0.00573699 -0.00241124 0.00113214 0.00330185 0.00346751 0.0020869 6.21325e-05 -0.0016646 -0.00242949 -0.00216419 
-0.00111127 0.000217811 0.00133606 0.00194283 0.00193564 0.00143884 0.000646912 -0.000182202 -0.000879249 -0.0013168 
-0.00147454 -0.00137479 -0.00109107 -0.000699689 -0.00028144 9.98225e-05 0.000404538 0.000597195 0.000689711 0.000673888 
0.000599659 0.000484218 0.000383932 0.000323997 0.000322881 0.000372229 0.000428745 0.000436211 0.000337779 0.00010084 
-0.000224825 -0.000555278 -0.000771796 -0.000788009 -0.00054423 -0.000116572 0.00035598 0.000650957 0.000715304 0.000497808 
0.000158425 -0.000237763 -0.000442661 -0.00047874 -0.00028676 -0.000100618 9.78583e-05 0.000225279 0.000331811 0.000493542 
0.000420172 0.000261779 -0.000238393 -0.000736548 -0.000940779 -0.000642142 -0.00024084 -0.000730139 -0.00134945 -0.00101062 
0.000309472 0.000594404 0.00303512 0.00102954 0.00162392 -0.000118407 -1.31526e-05 0.000564941 0.000173222 -0.000386933 
-0.000344059 7.68393e-05 0.000106073 -0.000231245 -0.000217412 6.64043e-05 8.54862e-05 0.000620589 0.000820865 -0.000877198 
-0.00335536 -0.00359734 -0.000136664 0.00459365 0.00628691 0.00262986 -0.00322912 -0.00630211 -0.00459841 0.000287828 
0.00480781 0.00639685 0.00482948 0.00146359 -0.00192615 -0.00384777 -0.00395201 -0.00243975 -0.00026197 0.00168129 
0.00274487 0.00269761 0.00175219 0.000378626 -0.000968492 -0.00187901 -0.00224525 -0.00203187 -0.00145951 -0.000668802 
9.99011e-05 0.000749452 0.00119213 0.00141431 0.0014544 0.00132416 0.00110295 0.000786249 0.000445468 7.17161e-05 
-0.000275527 -0.00057992 -0.000781972 -0.000851731 -0.000742317 -0.000482088 -8.0558e-05 0.000330509 0.000686484 0.00083979 
0.00078239 0.000515443 0.000203548 -4.82265e-05 -4.96723e-05 0.000163584 0.000579003 0.000924947 0.00111269 0.000982676 
0.000709528 0.000383228 0.000229245 0.000247058 0.000369549 0.000400199 0.000259652 -2.40868e-05 -0.000243632 -0.000271853 
-3.17776e-05 0.000259668 0.00049658 0.000436198 -4.04783e-05 -0.000295316 0.000577297 0.00107833 0.000988598 0.0005366 
-0.000365404 -0.000623681 0.0001725 -0.00155592 0.000226296 -0.000772379 0.000491997 9.47195e-05 -0.000737794 -0.000331914 
0.000150553 0.000155754 -0.000255727 -0.000293761 0.000153597 0.000244722 0.000654718 0.00116119 -0.000508077 -0.00333126 
-0.00388974 -0.000661359 0.0038046 0.0054203 0.0024335 -0.00201932 -0.00293252 -0.000122079 0.00321608 0.00389077 
0.00128501 -0.00251708 -0.00499756 -0.00519515 -0.00317789 -0.000180337 0.00247478 0.00393285 0.00373955 0.00233011 
0.000330085 -0.00149388 -0.0025384 -0.00267572 -0.00197935 -0.000857336 0.000336369 0.00125393 0.00174772 0.00179923 
0.00149882 0.00101099 0.000475395 2.49737e-05 -0.000282629 -0.000417817 -0.000424418 -0.000336405 -0.000247869 -0.000193028 
-0.000231205 -0.000354876 -0.000517025 -0.000671728 -0.000687626 -0.000552658 -0.000200427 0.000252957 0.000706223 0.000948994 
0.000880981 0.000419787 -0.000233763 -0.000909009 -0.00124183 -0.00114613 -0.000567862 0.000131254 0.000695229 0.00074255 
0.000357346 -0.000283309 -0.000735387 -0.000761265 -0.000340763 0.00023461 0.000619658 0.000658296 0.000374546 0.000125139 
-9.27756e-05 -0.0001532 -0.000230495 -0.000143408 -0.000147268 -0.00123391 -0.00136824 -0.0008773 -0.000619639 -0.000409676 
0.000104588 0.00112003 0.00172529 0.00105134 0.00182224 -0.000465198 0.000436827 -0.000859878 -0.000233816 0.000444408 
2.21015e-05 -0.000177893 -0.000165954 0.000262705 0.000328413 0.000479634 0.00119816 -6.86645e-05 -0.00320045 -0.00422148 
-0.00139967 0.00303934 0.00510293 0.00296747 -0.00123486 -0.00263574 -0.000801088 0.000752075 0.00030725 -0.00147392 
-0.00233491 -0.00101402 0.00147532 0.00352736 0.00435517 0.00336557 0.00136608 -0.000999268 -0.00281642 -0.00353046 
-0.00310754 -0.00179357 -0.000137235 0.00123175 0.00205809 0.00207204 0.00155746 0.000626594 -0.000291364 -0.00106977 
-0.00150208 -0.00158817 -0.00138345 -0.000925583 -0.000393975 0.000220026 0.00072315 0.00115887 0.00136608 0.00138022 
0.00111657 0.000624852 -4.91954e-05 -0.000763237 -0.00136307 -0.00163244 -0.00148897 -0.000870648 3.96759e-05 0.000981333 
0.00161509 0.00166219 0.00108343 0.000110815 -0.000830192 -0.00126931 -0.000939883 3.29483e-05 0.0012037 0.00199908 
0.00201352 0.00133743 0.000315536 -0.000403861 -0.000591618 -0.000248872 0.000159188 0.000325604 0.000151315 -7.11537e-05 
5.96732e-05 0.000325924 0.000478212 0.000373709 0.00112684 0.000995683 0.000380021 0.000429294 0.000687738 0.000336992 
0.000510874 0.00067891 -0.000122716 -0.00114993 -0.00146424 -0.00176317 0.000354606 -0.000407037 0.000712315 -0.000122766 
-0.000280403 0.000172308 6.12545e-05 4.78196e-05 0.000192672 0.00117003 0.000579522 -0.00263247 -0.00432399 -0.00211605 
0.00205139 0.00464009 0.00339489 -0.000505992 -0.00264715 -0.00101992 0.000688356 0.000825923 0.000322891 0.000296584 
0.00105763 0.00139733 0.000261038 -0.00139479 -0.00287062 -0.00352103 -0.00282977 -0.00141417 0.000488335 0.0021168 
0.0030445 0.00312189 0.00228701 0.00101354 -0.000355963 -0.00140893 -0.00190641 -0.00189801 -0.00144759 -0.000853344 
-0.000245084 0.00018396 0.000417893 0.000484886 0.000446333 0.000436773 0.000486673 0.000670522 0.000911334 0.00116403 
0.00124505 0.00111096 0.000587845 -0.000148933 -0.00110281 -0.00183488 -0.00221363 -0.00188766 -0.000960073 0.000436111 
0.00171722 0.00249401 0.00222532 0.00108774 -0.000636527 -0.00210113 -0.00275124 -0.00219607 -0.000860108 0.000641072 
0.00141342 0.00126089 0.000329547 -0.000575838 -0.000876495 -0.00040606 0.000442025 0.000955953 0.000819377 4.59815e-05 
-0.000555336 -0.000506623 -0.000121092 -0.000821344 -0.000781216 -0.000469648 -0.000514461 -0.000826626 -0.000263261 0.000248231 
0.000339858 -7.43222e-05 -6.76912e-05 -0.0003979 0.000597459 0.00114274 0.00111572 -0.000704353 -8.59417e-05 -0.000696913 
0.000361924 -0.000111525 -0.000481049 0.000392458 0.00148042 0.00130268 -0.00181972 -0.00419095 -0.00278953 0.00075868 
0.00372882 0.00365097 0.000434478 -0.00235475 -0.00132004 0.00067487 0.000670256 0.00014814 -0.000306247 -0.000482632 
-0.000649145 -0.00118405 -0.00117106 0.000118398 0.00147302 0.00282651 0.00327033 0.00265819 0.00140284 -0.000299589 
-0.00183583 -0.00285023 -0.00320889 -0.00264092 -0.00167561 -0.000319861 0.000759765 0.00150459 0.00165162 0.00130646 
0.000626671 -0.000248045 -0.000996997 -0.00162484 -0.00183881 -0.00178532 -0.00128142 -0.000533934 0.00045267 0.00145692 
0.00223862 0.00263226 0.00232245 0.00138359 -0.000211253 -0.00197984 -0.0035381 -0.00421404 -0.00382098 -0.00216116 
4.7211e-05 0.00226374 0.00335676 0.00305107 0.00127181 -0.000966728 -0.00273258 -0.00295968 -0.00168202 0.000491512 
0.0022129 0.00262945 0.00156147 -0.000208658 -0.00148562 -0.0016612 -0.000695334 0.000451944 0.00120007 0.000945426 
0.000126736 -0.00035387 0.000819696 0.00103707 0.000596034 0.000401703 0.00058566 0.000277899 -1.04985e-05 -6.41654e-05 
0.000218075 0.000143045 -7.77585e-05 -0.000539992 0.000146795 -0.000736537 -0.00116102 -0.000844557 0.000816896 0.000451365 
0.000477464 -0.000637067 0.000812514 0.00193378 0.00122919 -0.00134827 -0.00381816 -0.00321099 -0.000716684 0.00226266 
0.00369642 0.00166431 -0.00155908 -0.00166565 0.000462804 0.000647876 6.37275e-05 -8.3804e-05 -0.000325349 -0.000130736 
0.000175256 0.000442278 0.00116867 0.00112313 2.32246e-05 -0.00109617 -0.00246751 -0.00289209 -0.0024861 -0.00143218 
0.000131618 0.00159962 0.00281367 0.00344459 0.00330205 0.00268534 0.00148731 0.000323466 -0.000848343 -0.00166109 
-0.00218963 -0.00248258 -0.00255065 -0.00264947 -0.0025656 -0.00251244 -0.00210862 -0.00147788 -0.000342575 0.00108511 
0.00274182 0.00416341 0.0050468 0.00489485 0.00365056 0.00138672 -0.00131096 -0.00356837 -0.00462822 -0.00381639 
-0.00139049 0.00196104 0.00476059 0.0058556 0.0045043 0.0013315 -0.00229806 -0.00459281 -0.00449353 -0.00220936 
0.000839237 0.00281447 0.00278193 0.000937637 -0.00110855 -0.0021399 -0.00150692 -0.000160573 0.00097336 0.00126176 
0.000475122 -0.00137899 -0.0013269 -0.000325137 4.65534e-05 -0.000548032 -0.000481911 -0.000259596 0.000118353 0.00014304 
0.000148812 -0.00030121 -0.000646305 -0.000562668 0.00016849 -0.000480429 0.000449873 0.000790545 0.000454648 -0.000994604 
-0.000810191 -4.4322e-05 0.0016446 0.000384833 -0.00110542 -0.00239368 -0.0027148 -0.00188043 0.000474946 0.00355063 
0.00314991 -0.000384359 -0.00193446 -0.000139691 0.00069341 -1.5023e-05 2.2646e-05 -0.000295595 -0.000385561 8.634e-05 
8.10486e-05 -5.20866e-06 -2.5868e-05 -0.000778556 -0.00062118 2.59035e-05 0.000816709 0.0019511 0.00230256 0.00212836 
0.00146323 0.000273085 -0.000752578 -0.00183289 -0.00226553 -0.00228615 -0.00173661 -0.000783862 0.000182742 0.00110545 
0.00151839 0.0015232 0.000899692 -0.000100479 -0.00139198 -0.00266004 -0.00357412 -0.00392208 -0.00330098 -0.00188387 
0.000504198 0.00305955 0.0055511 0.00681881 0.00660182 0.00433814 0.000603492 -0.0038218 -0.00734797 -0.0087831 
-0.00721803 -0.00311898 0.0021188 0.00628545 0.00761745 0.0054295 0.000980832 -0.00350531 -0.00553662 -0.00425009 
-0.000516483 0.0031198 0.00452534 0.00288578 -0.000329746 -0.00290633 -0.00316918 -0.00145656 0.000393247 0.0014628 
0.00211456 0.000727345 -0.000427953 -0.000237963 0.000868539 0.000666843 3.56941e-05 -0.000322052 -0.000265967 -2.60181e-05 
-0.000160933 -0.000512298 -0.000303199 8.9027e-05 0.000426581 -9.99455e-05 0.00062064 -0.000178253 -0.000321308 -0.000103246 
0.00118713 0.00153737 0.00116803 3.11464e-05 0.000222437 -0.00152576 -0.00320958 -0.00192136 0.00256329 0.00414302 
0.000545015 -0.00220434 -0.00095802 0.000564047 3.47715e-05 -1.49662e-05 -7.06904e-05 -0.000519873 0.000108074 0.00031296 
-4.69344e-05 0.000220556 0.000200208 8.3196e-05 0.000625466 0.000107278 -0.00029154 -0.000886669 -0.00156826 -0.00150482 
-0.00120083 -0.000505917 0.000564199 0.00149388 0.00270521 0.00334767 0.00395296 0.00392925 0.00360705 0.00300745 
0.0020421 0.00109747 -0.000304811 -0.00167489 -0.003529 -0.00529473 -0.00708073 -0.0082837 -0.00851051 -0.00745102 
-0.00471988 -0.000811637 0.00394182 0.00812893 0.0108568 0.010719 0.00771659 0.00200616 -0.00435739 -0.00955818 
-0.0112077 -0.0086775 -0.0025475 0.00442108 0.00929134 0.00951023 0.00515906 -0.00159484 -0.00695606 -0.00811895 
-0.00464533 0.00110166 0.00545989 0.00596879 0.00270854 -0.00161254 -0.00404502 -0.00298435 -0.000524973 0.000354238 
0.000933508 0.000290776 -0.000647342 -0.0012466 -0.000294411 0.000328641 0.000114083 -0.000241184 -0.000228285 -0.000124861 
-0.000288048 -0.000174188 -8.95917e-05 -1.26673e-05 2.02638e-05 -0.000414417 -0.000108116 -0.000840148 -0.000250096 -0.000310856 
-2.51836e-05 -0.000145669 0.000423709 0.000474334 -0.00151013 -0.005343 -0.00430986 0.00129509 0.00481938 0.00163484 
-0.001741 -0.000953624 0.000589279 0.000292102 0.000172107 0.000390551 -0.000430313 -0.000143872 0.000400977 -0.000147295 
-4.50294e-06 0.00042921 -0.000106043 -5.68283e-05 -0.000298694 -0.000801164 -0.000106448 0.000340962 0.00113752 0.00171048 
0.00141785 0.00112824 0.000404044 -0.00012069 -0.000418451 -0.000575679 -9.95733e-05 0.000475644 0.00173231 0.00304501 
0.00444186 0.00551716 0.0057287 0.00511031 0.00306367 0.000168958 -0.00373126 -0.00752785 -0.0108271 -0.0123366 
-0.0116344 -0.00813173 -0.00234168 0.00468957 0.0112607 0.0151819 0.0151099 0.0102119 0.0018839 -0.00750112 
-0.01428 -0.0157776 -0.0108964 -0.00164819 0.00797513 0.0133416 0.0119032 0.00458523 -0.00449097 -0.0100746 
-0.00944752 -0.00337241 0.00366587 0.00741329 0.00575934 0.000760715 -0.00409237 -0.00489803 -0.0011436 0.00152889 
0.00225744 0.000924128 -0.000154428 -0.000864901 -0.000217343 0.000632622 0.000442109 -0.000211176 -0.000445184 -0.000145621 
-0.000105751 -9.215e-05 -0.000397518 -6.59765e-06 0.000124419 -0.000183781 0.000272005 0.000308181 0.00107587 0.000943141 
0.00183841 0.00228454 0.00210578 -0.00059928 -0.00404077 -0.00380458 0.0016158 0.00488324 0.00231649 -0.00114316 
-0.000485281 0.000243271 -0.00029729 2.41289e-05 0.000601465 -0.00061116 -0.000913818 0.000269665 -4.32085e-05 -0.000147729 
0.000572378 0.000119968 -0.000418551 -0.00011834 -0.000619078 -4.65356e-05 0.000500952 0.000106458 -0.000220925 -0.00121317 
-0.00184654 -0.00162007 -0.00129938 -5.57757e-05 0.000901494 0.00218586 0.0033227 0.00443444 0.00583608 0.00693803 
0.00834016 0.00910866 0.00957435 0.00895705 0.0071398 0.00392491 -0.00089442 -0.0064587 -0.0125249 -0.0171637 
-0.0197379 -0.0183795 -0.0131747 -0.00419781 0.0064658 0.0163071 0.022114 0.0216453 0.0142783 0.00203895 
-0.0109633 -0.0195792 -0.0201204 -0.0119943 0.00109817 0.01294 0.0174881 0.0127433 0.00149997 -0.00920357 
-0.0134312 -0.0090178 4.67764e-05 0.00762063 0.00888916 0.00445286 -0.0022762 -0.00706451 -0.0048337 -0.000105136 
0.00315459 0.00206929 -0.000287597 -0.00181961 -0.00136948 0.000185518 0.000816135 0.000243416 -0.000345645 -0.000285198 
-1.13937e-05 -0.000384371 -0.000369525 0.000535324 0.000102616 -0.000260609 0.000307026 -5.42614e-05 -0.000431378 -0.000999486 
-0.000417956 -0.000737219 -0.00158772 -0.00338483 -0.00325865 -0.000842645 0.00112023 -1.25433e-05 -0.000941238 0.000301922 
0.000168451 -0.00148673 -0.000169346 0.00131177 -0.000340305 -0.00141882 0.000522786 0.00068359 -0.000190251 0.000574934 
0.000363203 -0.000575266 -0.000215806 -0.000237768 -0.00030718 0.000613478 2.45219e-06 -0.000390539 -0.000533907 -0.000830793 
-0.000362141 -0.000358965 -0.000585394 -0.000867173 -0.00180512 -0.00203409 -0.0022258 -0.00120279 0.000687108 0.0035411 
0.00751999 0.0114953 0.0157761 0.0185992 0.0199349 0.0183737 0.0137943 0.00619953 -0.0037548 -0.0141806 
-0.0233572 -0.0284657 -0.0281061 -0.0209779 -0.00848342 0.0070476 0.0210178 0.0291844 0.0279677 0.0172744 
0.0001879 -0.0166493 -0.0263268 -0.0242026 -0.0111379 0.00656048 0.0197115 0.0215699 0.0114394 -0.00398907 
-0.0153006 -0.0157857 -0.00653006 0.00521004 0.0109035 0.00827147 0.0016216 -0.00590743 -0.00706445 -0.00294865 
0.00285742 0.00431193 0.00184409 -0.00117764 -0.00201744 -0.000660587 0.000625981 0.000490031 -0.00013086 -0.000321333 
-4.61306e-05 -0.000505992 0.000219425 0.000674024 -0.000550489 -0.000226076 0.000351295 -0.000400751 -0.000186247 0.00116423 
0.00299571 0.0033487 0.00228641 -0.000251258 -0.00182834 -0.00200625 -8.10302e-05 0.00251583 0.00381199 0.00124285 
-0.00229946 -0.000424215 0.0027022 0.000398149 -0.00193825 0.000409478 0.00135447 -0.000721912 -1.60953e-05 0.000571949 
-0.000669255 -0.000419001 9.2322e-05 -0.000447305 0.000200828 -2.52544e-05 -0.00100635 -0.000778218 -0.00138669 -0.00193127 
-0.00241721 -0.00353194 -0.00396576 -0.00486836 -0.00536341 -0.00538285 -0.0052267 -0.00383182 -0.00200217 0.00135311 
0.00559881 0.0109369 0.0170476 0.0227542 0.0276298 0.0295947 0.0282137 0.0219606 0.0114901 -0.00255071 
-0.0175788 -0.0306124 -0.0382748 -0.0377523 -0.0281262 -0.0107416 0.0101876 0.0286894 0.0382799 0.0349047 
0.0188116 -0.00441549 -0.0252594 -0.0345202 -0.0274811 -0.00773152 0.0145122 0.0271905 0.023742 0.00720381 
-0.0114663 -0.0203595 -0.0148248 -0.000148365 0.0117372 0.0118845 0.00492424 -0.00472256 -0.00855677 -0.00599233 
0.00061863 0.00469251 0.00357509 -0.000115426 -0.00227189 -0.00148783 0.000261557 0.000591092 8.00579e-05 -0.000284456 
-0.000133624 -0.000272766 0.000607131 3.78497e-05 -0.00086474 0.000412373 0.000256797 -0.000528625 0.000589832 0.00163007 
0.000984305 -0.00150662 -0.00491495 -0.00716963 -0.00582902 -0.00113565 0.00404339 0.00380366 -0.00112042 -0.00484821 
-0.00166365 0.00319849 0.000507749 -0.00331411 -0.00053238 0.00177768 -0.001117 -0.00102363 0.00118029 -0.00041011 
-0.000670255 0.00049514 -0.000346624 -0.000392827 0.000199262 -0.000906124 -0.000603061 -0.000795899 -0.00200928 -0.00225456 
-0.00309512 -0.00398388 -0.0052189 -0.00772324 -0.00987299 -0.0127479 -0.0148105 -0.0158757 -0.0157436 -0.0130412 
-0.00847398 -0.000602227 0.00926111 0.0209688 0.0326825 0.0422013 0.0476958 0.0465203 0.038289 0.0225742 
0.00192344 -0.0205872 -0.0398532 -0.0513927 -0.0511012 -0.0380458 -0.014384 0.0136473 0.0375469 0.0484941 
0.0417736 0.0188051 -0.0111342 -0.0351197 -0.0414421 -0.027199 -0.000101278 0.0244444 0.0326301 0.0206982 
-0.00241705 -0.0210551 -0.0236154 -0.00985673 0.0096246 0.0170147 0.0114313 -0.00171813 -0.00984592 -0.00907791 
-0.00181092 0.00468339 0.00547225 0.00165052 -0.00187 -0.00209286 -0.000241433 0.000478263 8.12031e-05 -0.000152949 
-9.89227e-05 1.90331e-05 0.000443685 -0.00055597 -0.000351144 0.000769774 -0.000441691 -0.000447102 0.00103863 0.00108367 
0.000356505 9.41893e-05 0.000116502 0.00149439 0.00357084 0.00507737 0.00310712 -0.00198991 -0.00312732 0.000901914 
0.00456392 0.000937094 -0.00363941 -6.52936e-05 0.00334917 -0.000265629 -0.00171757 0.00202613 0.000806304 -0.00114591 
0.000920964 0.00015055 -0.000991596 0.000466399 -0.000132054 -0.000685249 -0.000206892 -0.00190237 -0.00223151 -0.00251312 
-0.00420147 -0.00584226 -0.00914037 -0.0125826 -0.0162471 -0.0205852 -0.0240579 -0.0279503 -0.0304361 -0.0311246 
-0.028916 -0.0222578 -0.0115651 0.00377522 0.0214354 0.0397551 0.0550849 0.0644294 0.0648308 0.0548491 
0.0350068 0.00791931 -0.0213953 -0.0468155 -0.0618716 -0.0616865 -0.0448921 -0.0148748 0.0199377 0.0479263 
0.0580895 0.0452781 0.0137743 -0.0226722 -0.046646 -0.0457615 -0.0208151 0.0135143 0.0367584 0.0355001 
0.0127773 -0.0147719 -0.0285602 -0.0223356 0.000180574 0.0173612 0.0188362 0.00516331 -0.00889383 -0.0125648 
-0.00557535 0.00350526 0.0068245 0.00341244 -0.00135485 -0.0025866 -0.000485349 0.000682514 -5.97541e-05 -0.000210237 
-2.68653e-05 6.61443e-05 5.78317e-05 -0.000545659 0.000228628 0.000264726 -0.000949758 0.000308073 0.00138372 0.00104675 
0.00109353 0.000415842 -0.00243159 -0.00500818 -0.0062631 -0.00475703 -0.00318523 -0.000839746 0.00245816 0.00191977 
-0.00191195 -0.0039889 0.000862994 0.00399056 -0.00112876 -0.00359592 0.00131617 0.00167555 -0.00250742 -0.000186214 
0.000724543 -0.0019288 -7.18813e-05 0.000720357 -0.0011628 -0.000149947 -0.000843492 -0.00170172 -0.000629581 -0.00218868 
-0.00361101 -0.00558487 -0.00922555 -0.0126635 -0.0185396 -0.0252891 -0.0336583 -0.0434343 -0.0518943 -0.0591336 
-0.0615508 -0.058651 -0.0484323 -0.0309037 -0.00727079 0.0205221 0.0479218 0.0711879 0.0849494 0.0864079 
0.0734538 0.0478217 0.0128796 -0.0242254 -0.0562051 -0.0743476 -0.0734112 -0.0512687 -0.0136024 0.0288474 
0.0600555 0.0673776 0.0456827 0.00426143 -0.0374596 -0.0577307 -0.0455292 -0.00886322 0.0296767 0.0453253 
0.0303512 -0.00238412 -0.0269285 -0.0308573 -0.0111956 0.012432 0.0227813 0.0131898 -0.0046531 -0.0146494 
-0.0100918 0.0013566 0.0082457 0.00604937 -0.000346598 -0.00358028 -0.00141552 0.00119356 0.000277221 -0.000406617 
1.13548e-05 -3.99461e-06 -8.58612e-05 -0.000249696 0.000194001 -0.000403318 -0.000490799 0.00109476 0.00117915 0.00106833 
0.00109528 -0.0010437 -0.00369152 -0.00233709 0.00240198 0.00791025 0.00804105 0.00482677 4.66071e-05 -0.00328982 
-0.000952888 0.00345816 0.00352464 -0.0032053 -0.00467366 0.00209994 0.00344837 -0.00233497 -0.00105247 0.00282463 
-0.000868437 -0.000522366 0.00246261 -0.000219647 -8.52443e-06 0.00168396 -2.19339e-05 0.00159342 0.00180546 0.000355825 
0.00097272 -0.00120146 -0.00353384 -0.00755974 -0.0148808 -0.0235664 -0.0363941 -0.0504969 -0.065961 -0.0812316 
-0.0925579 -0.0989746 -0.0959717 -0.0833579 -0.0594208 -0.0267845 0.0113982 0.0492919 0.0807842 0.100175 
0.103209 0.0890475 0.0590472 0.0187101 -0.0248475 -0.0616651 -0.0829038 -0.0806471 -0.0539951 -0.0088686 
0.0390507 0.0710616 0.0716794 0.0389485 -0.011532 -0.0538989 -0.0635462 -0.0362443 0.011254 0.0467119 
0.0475929 0.0149663 -0.0211193 -0.0372454 -0.0230031 0.00507805 0.0242286 0.0207541 0.00193142 -0.0144455 
-0.0149295 -0.00279198 0.00823493 0.00901995 0.00207871 -0.0038999 -0.00325361 0.000991133 0.00110882 -0.000416202 
-9.62532e-05 -1.1774e-06 -4.63326e-05 -0.000153815 -0.00018126 -0.000394562 0.000266732 0.00102202 0.000929482 0.0015826 
0.000846745 -0.00192288 -0.00284693 -0.000443236 0.00104716 -0.000757631 -0.00630432 -0.00819365 -0.00585391 -0.00027715 
0.00335163 6.28054e-05 -0.00483381 -0.00306734 0.00513107 0.00483826 -0.00291213 -0.00242821 0.00366013 0.00020774 
-0.00277632 0.00218353 0.000703447 -0.00145998 0.00251809 0.00172288 0.00204206 0.00568799 0.00522583 0.00791448 
0.0104 0.0101315 0.011486 0.00827619 0.00325715 -0.00607485 -0.0214279 -0.0402635 -0.0651222 -0.0906682 
-0.115875 -0.13578 -0.145853 -0.143282 -0.124481 -0.091748 -0.0465446 0.00312668 0.051373 0.0891187 
0.111576 0.114142 0.0979583 0.0645572 0.0206307 -0.0267549 -0.0665968 -0.0888817 -0.0842152 -0.0515826 
0.000882764 0.0527053 0.0816242 0.0706623 0.0249885 -0.03283 -0.0683824 -0.061652 -0.0174656 0.0341883 
0.0582697 0.0372618 -0.00654156 -0.0391924 -0.0361951 -0.00665237 0.0224919 0.0275026 0.00990034 -0.01165 
-0.0185239 -0.00779054 0.00675975 0.0112855 0.00510321 -0.00291317 -0.00500526 -0.000343828 0.0017808 -6.32913e-05 
-0.000320361 0.000166179 -8.61267e-05 -0.000339391 -0.000336451 0.000100709 0.000471124 0.000697043 0.00149315 0.0019251 
-0.000175274 -0.00234203 -0.00171576 -1.00008e-05 0.00019097 0.000447687 0.00179966 0.00607187 0.00763916 0.00577261 
0.000743412 -0.00223154 0.0014529 0.00582433 0.00189275 -0.00692375 -0.00433073 0.00394224 0.00111638 -0.00453451 
0.00123399 0.003094 -0.00164318 0.00262761 0.00523828 0.00331787 0.00897722 0.0119607 0.0146551 0.0228065 
0.0269085 0.0334321 0.0399675 0.0418412 0.0429249 0.035251 0.0216778 -0.000374919 -0.0318268 -0.0679097 
-0.109583 -0.147305 -0.178159 -0.193555 -0.189869 -0.165256 -0.121604 -0.0658955 -0.00572072 0.0480224 
0.089522 0.111313 0.114577 0.0976395 0.0661593 0.0219992 -0.0251467 -0.0674615 -0.0899031 -0.0837817 
-0.0448381 0.0129327 0.0663452 0.0864638 0.0610406 0.0023038 -0.0552096 -0.074559 -0.046082 0.0101404 
0.0552694 0.0549643 0.0151389 -0.0316148 -0.0456637 -0.021794 0.0155758 0.0324717 0.0190284 -0.00652912 
-0.0206049 -0.0134188 0.00383915 0.0127483 0.00800014 -0.00109421 -0.00579028 -0.00224337 0.00171603 0.00046382 
-0.000562833 0.000382958 -0.000304019 -0.000434601 -1.50057e-05 0.000443661 9.41458e-05 0.000859294 0.00224712 0.00135722 
-0.00088891 -0.00151445 -0.000936065 -0.000773961 -0.000412318 0.00091287 0.000584231 -0.00158245 -0.00584541 -0.00703531 
-0.00489263 -0.000803259 0.000419887 -0.00395219 -0.00698907 -0.000325932 0.00859993 0.00361255 -0.00438034 0.00128933 
0.00616945 -0.00038136 0.00137532 0.00788159 0.00497394 0.00895778 0.017186 0.0198158 0.0308155 0.042608 
0.0531248 0.0710817 0.0846639 0.0983652 0.108521 0.108967 0.102952 0.0810178 0.0469286 -0.000924119 
-0.0591249 -0.118563 -0.174548 -0.213524 -0.232169 -0.222452 -0.188756 -0.133886 -0.0700856 -0.00703374 
0.0451516 0.0805134 0.0983405 0.0990422 0.0862093 0.0596554 0.02222 -0.0228903 -0.064273 -0.0872075 
-0.0774689 -0.0329217 0.0290695 0.0786999 0.0841134 0.041432 -0.0272647 -0.0733313 -0.0675602 -0.0174807 
0.0421526 0.0630715 0.0360021 -0.0167678 -0.0480756 -0.0360074 0.0035052 0.0329105 0.0277585 0.00051214 
-0.0204434 -0.0185346 -0.000232214 0.0135453 0.0106833 0.00052619 -0.00593361 -0.00383069 0.00108052 0.000881 
-0.000759004 0.000551501 -0.000605968 -0.000262889 0.00031225 0.000203943 -0.000172305 0.00173379 0.00245402 0.0003823 
-0.00076552 -0.00102179 -0.00165227 -0.00113829 0.00119371 0.0024491 0.000341428 -0.00107526 0.000441522 0.00462378 
0.00614154 0.003877 0.00079849 0.00161237 0.00683564 0.00811874 -0.00107947 -0.00909443 -0.0013906 0.00591709 
-0.00150732 -0.00280376 0.00695772 0.00605009 0.00617397 0.0184981 0.0237315 0.0332498 0.0527214 0.0681733 
0.0925771 0.12144 0.147088 0.178845 0.202252 0.21978 0.224818 0.209097 0.176958 0.119977 
0.0484574 -0.0350643 -0.118135 -0.188007 -0.235996 -0.2502 -0.23367 -0.186196 -0.124442 -0.0568842 
-0.00118334 0.040044 0.0618937 0.0722486 0.0727419 0.0681342 0.0522651 0.0242603 -0.0178413 -0.0587586 
-0.0824003 -0.0674576 -0.0185395 0.0458829 0.0837664 0.0719243 0.011293 -0.0565104 -0.0788684 -0.0460236 
0.0212626 0.0634122 0.0533877 0.00199716 -0.0440409 -0.0462522 -0.00982236 0.0292217 0.0350854 0.00862313 
-0.0189822 -0.0232241 -0.00551836 0.0135441 0.0140952 0.00228301 -0.0064087 -0.00529664 0.00033059 0.00117764 
-0.000880518 0.00059037 -0.0007952 9.69236e-05 0.000350479 -0.000261284 0.000139077 0.00247368 0.0016624 -0.000183978 
-3.68518e-05 -0.0011654 -0.00184911 0.000360042 0.00226357 0.00028901 -0.00292524 -0.00195297 0.000633363 0.00081556 
-0.00212299 -0.00411059 -0.00260197 -0.00121748 -0.00402749 -0.00964653 -0.00836551 0.00321801 0.00990448 0.000640338 
-0.00305528 0.00874653 0.0106447 0.00629182 0.0183099 0.0284602 0.0337892 0.0560883 0.0779255 0.103083 
0.143762 0.182796 0.229856 0.281283 0.323965 0.364335 0.383605 0.382935 0.355299 0.294518 
0.210668 0.102257 -0.0095595 -0.11616 -0.196377 -0.240955 -0.243903 -0.208151 -0.14925 -0.0805529 
-0.0244951 0.0143172 0.0286178 0.032812 0.0316778 0.0387795 0.0455937 0.0473892 0.0273366 -0.00978039 
-0.0533711 -0.0728569 -0.053529 0.00185836 0.0597725 0.0805682 0.0482779 -0.0238804 -0.0724631 -0.067837 
-0.0076244 0.0530321 0.0644584 0.0222804 -0.0341763 -0.0530161 -0.0235316 0.0216862 0.0400306 0.0183658 
-0.0151792 -0.0268348 -0.0118893 0.0113275 0.0174973 0.00529883 -0.00678854 -0.00719872 -0.000634659 0.00148015 
-0.000953492 0.000531946 -0.000792673 0.000363149 2.40363e-05 -0.000533027 0.000869154 0.00258921 0.000758071 0.000256315 
0.000387381 -0.0019421 -0.00134532 0.00126767 0.000800366 -0.00164997 -0.000848447 0.0030111 0.00323503 0.000155002 
-0.00175761 -0.00092224 0.00100592 0.000806431 0.00196128 0.00695998 0.0128825 0.0091356 -0.0031798 -0.00618783 
0.0067655 0.0102152 0.00217093 0.0113366 0.0264164 0.0294883 0.0477166 0.0767118 0.100641 0.144483 
0.196599 0.251043 0.323639 0.392543 0.462293 0.52597 0.565269 0.584826 0.562893 0.504962 
0.408255 0.278581 0.136577 -0.00784649 -0.123226 -0.202846 -0.227316 -0.206421 -0.147448 -0.0762035 
-0.0136558 0.0225616 0.0274357 0.0119152 -0.00755906 -0.0116122 0.0039181 0.0302325 0.0458986 0.0334798 
-0.0053435 -0.0496071 -0.0637721 -0.0362949 0.0224233 0.0642515 0.0653064 0.00995692 -0.0506677 -0.0719261 
-0.0332385 0.0335195 0.0661416 0.0396719 -0.0188131 -0.0538818 -0.0357025 0.011469 0.04078 0.027456 
-0.00913363 -0.0284257 -0.0176136 0.00736787 0.0192571 0.00894727 -0.00626058 -0.00924388 -0.00203956 0.00173992 
-0.000961342 0.000422894 -0.000653991 0.000386294 -0.000385452 -0.000408745 0.00143096 0.00195356 0.000287484 0.00099099 
-9.36827e-05 -0.00239738 -0.000128326 0.0012539 -0.00037455 -0.000534636 0.00156734 0.00100904 -0.00339719 -0.00441136 
-0.000681428 0.00289111 0.0041959 0.00269806 0.00151264 -0.00226742 -0.00884864 -0.0139486 -0.00653111 0.00758933 
0.00990393 0.000120852 0.00724671 0.0252525 0.0283474 0.0387608 0.0705842 0.0951884 0.131699 0.190818 
0.248696 0.326298 0.417681 0.505529 0.604872 0.687486 0.751866 0.787863 0.774185 0.720901 
0.610878 0.464271 0.289685 0.11061 -0.0436827 -0.157827 -0.206896 -0.200953 -0.140046 -0.0609655 
0.0181668 0.061606 0.0669403 0.0315463 -0.0143987 -0.0511998 -0.0507682 -0.0211713 0.0255436 0.0498774 
0.0409497 -0.00467968 -0.044947 -0.0529818 -0.011965 0.0378396 0.0631583 0.0336696 -0.0264121 -0.0640313 
-0.0482037 0.0114691 0.0595468 0.0505212 -0.00293189 -0.049201 -0.0448036 0.000557342 0.0383984 0.0343987 
-0.00217625 -0.028455 -0.0221037 0.00337319 0.019577 0.0120443 -0.00511034 -0.0109848 -0.0037533 0.00196446 
-0.000798904 0.000266595 -0.000471327 0.000138637 -0.000653218 -9.82847e-05 0.00151725 0.00123788 0.00060568 0.00135599 
-0.00103242 -0.00194782 0.0008378 0.000289651 -0.000671568 0.000692827 0.000744153 -0.00178658 -0.00153776 0.00369731 
0.00580462 0.00132235 -0.00416602 -0.00745347 -0.00636173 -0.0033819 0.00353416 0.0122175 0.0174805 0.00945284 
-0.00071263 0.00582212 0.0236673 0.0251039 0.0281113 0.0561632 0.0828539 0.107751 0.163619 0.22445 
0.294242 0.394004 0.494225 0.606526 0.726262 0.824794 0.912984 0.957979 0.957347 0.90418 
0.785353 0.62469 0.42081 0.214044 0.0207782 -0.123868 -0.203178 -0.212053 -0.154933 -0.0643041 
0.0363977 0.103189 0.126003 0.0899868 0.0255623 -0.0472242 -0.0835569 -0.077539 -0.0270013 0.0273826 
0.0579208 0.0400841 -0.00699386 -0.0452866 -0.0380944 0.0053693 0.0461546 0.0456958 -0.00147093 -0.0494459 