# vtk DataFile Version 2.0
Titre
ASCII
DATASET STRUCTURED_POINTS
DIMENSIONS 100 100 1
ORIGIN 0.0 0.0 0.0
SPACING 0.1 0.1 0.0
POINT_DATA 10000 
SCALARS rho float
LOOKUP_TABLE default
-0.00180602 7.02032e-05 -0.00146333 -0.00215112 0.000989887 0.000544446 -2.69023e-05 0.000653279 -0.000125624 -0.00102312 
-0.00100089 0.000846029 0.000735921 -0.00054074 -0.000947875 0.000196473 0.000731463 -0.000179415 -0.000796962 -0.000885637 
-0.000115168 0.00045353 0.000384965 -0.000391581 -0.000391562 0.000188724 0.000483797 0.000397094 0.00011498 -0.000306087 
-0.000470775 -0.000420013 -0.000502046 -0.000513128 -0.000444071 -0.000259755 0.000230588 0.000781065 0.00130779 0.00162311 
0.00157585 0.00114026 0.000422366 -0.000527781 -0.0013906 -0.00213837 -0.00252083 -0.00256805 -0.00225615 -0.00163039 
-0.000829594 0.000129847 0.00107816 0.00201318 0.00282198 0.00348155 0.00396768 0.00423625 0.0043286 0.00420549 
0.00391449 0.00343757 0.00280484 0.00202386 0.00114833 0.000213739 -0.000692744 -0.00152909 -0.00223681 -0.00279602 
-0.0031991 -0.00344816 -0.0035812 -0.00362893 -0.00363082 -0.00356638 -0.00345217 -0.00323944 -0.00291301 -0.0024898 
-0.00199878 -0.00149711 -0.0010481 -0.000642472 -0.00033671 -9.34646e-05 -1.24818e-05 -7.50588e-05 -0.000382467 -0.00074813 
-0.00108543 -0.00130497 -0.00136583 -0.00149042 -0.00128805 -0.000899241 -0.00106443 2.84812e-05 -0.000223862 0.000364675 
4.35385e-05 0.00338761 0.00146094 0.00433706 0.00536462 0.00202609 7.15898e-05 -0.00322658 -0.00255777 -0.000153632 
0.0019274 0.000373825 -0.00159315 -0.000660901 0.000559486 0.000358623 -0.00124401 -0.000432999 0.000109988 5.17786e-05 
-1.81699e-05 0.000186523 -0.000257249 -0.000454439 0.000224062 8.53396e-05 -5.26162e-05 3.68791e-05 -6.8373e-05 -0.00046347 
-0.000320973 -0.000523541 -0.000362022 8.59906e-05 0.000585145 0.00105827 0.00145329 0.00119943 0.000762257 -0.000167332 
-0.0011431 -0.00193141 -0.00240636 -0.00229219 -0.0017009 -0.000679049 0.000581155 0.00183591 0.0029077 0.00363152 
0.00389749 0.0037228 0.00309431 0.0021394 0.000926419 -0.000404122 -0.001767 -0.00304428 -0.00419722 -0.00513801 
-0.00587017 -0.00636658 -0.0066151 -0.00667168 -0.0064924 -0.00617348 -0.00567204 -0.00506626 -0.00432104 -0.00351182 
-0.00261432 -0.0017048 -0.000766755 0.000112358 0.000899415 0.00154077 0.00201493 0.00227363 0.00233474 0.00220135 
0.00189035 0.00142049 0.000801127 7.59325e-05 -0.000621628 -0.00120228 -0.00148172 -0.00147037 -0.00126896 -0.00111051 
-0.00101237 -0.000867784 -0.000711145 -0.000803116 -0.00131062 -0.00132081 -0.00140241 -0.00184676 -0.00152748 0.00227201 
-0.000386495 -0.000689509 -0.00228784 -1.4475e-05 -0.002623 -0.00331774 -0.00333241 -0.00113985 0.00210687 0.00245431 
-0.000223031 -0.00281381 -0.000352474 0.00130552 0.00058416 -0.00157133 -0.000520654 0.00104513 -4.08748e-05 -0.00024956 
0.000151814 0.000279321 -0.000449987 0.000494295 0.000370919 -0.000156964 5.65554e-05 0.0001707 -0.000480534 -0.000303525 
-0.00020449 -0.00026011 0.000301491 0.00059967 0.000562892 0.00060769 2.86566e-05 -0.000495854 -0.000883456 -0.00111636 
-0.000801454 -0.000137001 0.000643198 0.00161684 0.00209786 0.0023725 0.00200569 0.00122805 0.000147982 -0.001185 
-0.00234586 -0.00342136 -0.00403951 -0.00430401 -0.00411613 -0.00349913 -0.00262395 -0.00142886 -0.000191254 0.00115287 
0.00239437 0.00353485 0.00448498 0.00521883 0.00570803 0.00594242 0.00592538 0.00563238 0.00514274 0.00442059 
0.00358504 0.00261105 0.00165352 0.000727234 -4.70174e-05 -0.000671207 -0.00105521 -0.00125086 -0.00123564 -0.00111207 
-0.000876771 -0.000614103 -0.000346103 -0.000174697 -0.000113162 -0.000209988 -0.000415819 -0.000586566 -0.000666342 -0.000742824 
-0.00103434 -0.00142389 -0.00127559 -0.000790018 -0.000694236 -0.00071846 -0.000567795 0.000684924 -0.00392148 -0.000439299 
-0.000118292 0.000449963 0.00270933 0.0038995 0.0033985 0.00232113 0.00157925 0.000756441 -0.00055072 -0.00202515 
-0.00289361 0.000451211 0.00219168 0.000177332 -0.0017288 -0.000950333 0.00167542 -9.91574e-06 -0.000731449 0.000307084 
0.000637926 -0.000396907 6.40949e-06 0.000646402 -0.000529324 -0.000116247 0.000320385 -0.00030853 -0.000540607 0.000157189 
-0.000300165 0.000133251 0.000448378 0.000171574 0.000134205 8.08697e-05 -0.000357051 -8.96034e-06 2.41092e-05 0.000368597 
0.000735942 0.000672016 0.000559829 1.79806e-05 -0.00069237 -0.00131937 -0.00191731 -0.0020695 -0.0018916 -0.00132748 
-0.000376271 0.000646557 0.00181931 0.00276322 0.00354012 0.00394115 0.00399607 0.00368877 0.00304735 0.00218605 
0.00111087 3.11449e-05 -0.00112201 -0.00208861 -0.00298102 -0.00358906 -0.00398789 -0.00410206 -0.00398141 -0.00362531 
-0.00308623 -0.00244684 -0.00176092 -0.00110875 -0.000521401 -5.61014e-05 0.000301347 0.000532095 0.000682159 0.000733993 
0.000670025 0.000498759 0.000239088 -8.27625e-05 -0.000396924 -0.000657962 -0.000886664 -0.00101393 -0.000916628 -0.000484334 
-4.52829e-05 -0.000332471 -0.00106132 -0.000998237 -0.00100545 -0.000802485 -0.00268052 0.0019627 -0.000653817 -0.000859169 
-4.47571e-06 0.000838328 2.30506e-05 -0.00018682 -0.00374294 -0.00508049 -0.00440709 -0.00303953 0.000564597 0.00100798 
0.00199638 0.00194556 -0.000983897 -0.0016116 -0.000422839 0.00182087 0.000493179 -0.00131408 0.000633477 0.000892295 
-0.000250871 -0.000554117 0.000955586 -0.000202647 -0.000321281 0.00065999 -4.88946e-05 -0.000843813 0.000150029 -7.94547e-05 
-0.000335976 0.000425756 9.49031e-05 -0.000116746 0.000290873 -0.000156278 2.56419e-05 0.000181969 -8.34058e-05 3.94602e-05 
-0.00019708 -0.000522053 -0.000424 -0.000667548 -0.000241045 7.16891e-05 0.000586991 0.00119203 0.00143489 0.00171042 
0.00144641 0.00106127 0.000370635 -0.000494653 -0.00127342 -0.00214082 -0.00263926 -0.00306996 -0.00309009 -0.00291207 
-0.00247081 -0.00180624 -0.00107774 -0.00022409 0.00051413 0.00123457 0.00171694 0.00209983 0.00218597 0.00214192 
0.00187719 0.00154637 0.00109673 0.000679898 0.000253425 -7.37317e-05 -0.000346702 -0.000504243 -0.000592163 -0.000539562 
-0.00043386 -0.000280482 -0.000172359 -0.000128539 -0.000190382 -0.000233444 -0.000319209 -0.000510564 -0.000909204 -0.00117108 
-0.000636347 0.000143228 -0.000143281 -0.000362847 -0.000722045 0.00162541 -0.00306557 -0.0002402 -0.000372578 -0.000283774 
0.000641451 -0.000611369 0.00177416 0.00128156 -0.000284445 0.00249632 0.00262399 0.00442645 0.00253617 -0.00170809 
-0.00196238 -0.00239585 -0.000492823 0.00121638 0.00110151 0.000171629 -0.00159066 0.000482575 0.00118937 -0.000495479 
-0.000750592 0.000770338 0.000469524 -0.000879493 0.000561786 9.72745e-05 -0.00101381 -0.000106759 0.00057614 -0.000562752 
0.000366307 0.000410952 -0.000223756 0.000232594 0.000188902 -0.000333659 0.00026755 -0.000214269 -0.000133468 6.78432e-05 
-0.00019045 0.000166046 0.000221536 0.000251765 0.000501994 0.000211799 0.000159111 -0.000205848 -0.000616965 -0.000800615 
-0.00115639 -0.00101062 -0.000929607 -0.000484412 3.28186e-05 0.00058147 0.00121733 0.00160921 0.00201192 0.00205226 
0.00204376 0.00170553 0.00132769 0.000780877 0.000235019 -0.000284434 -0.000757528 -0.00105415 -0.00126132 -0.00128326 
-0.0012434 -0.00104625 -0.000868715 -0.000616472 -0.00043947 -0.000252897 -0.000156939 -7.19289e-05 -8.56731e-05 -8.29438e-05 
-0.000104731 -8.90746e-05 -8.22425e-05 -0.000122829 -0.000309872 -0.000525349 -0.000539835 -0.000216796 0.000117292 -0.000291543 
-0.000817723 -0.000181154 3.97661e-05 0.000558288 -0.00252405 0.00247636 -0.000792885 -0.000366565 -0.000104889 -0.000624686 
-0.00137303 0.000812766 0.0024931 -0.00192096 -0.00172589 -0.00261327 -0.00318923 -0.00178089 -0.00393789 -0.00134233 
0.00226226 0.0033041 0.00277745 -0.000678292 -0.00136116 -0.000722386 0.000687562 0.00142031 -0.000692208 -0.00067877 
0.000691387 0.000784669 -0.000948937 5.5769e-05 0.000644559 -0.000870605 -0.000271179 0.000904561 -0.000440268 -0.00038767 
0.000677529 -0.000391737 -0.000228941 0.000353338 -0.00048185 -2.54069e-05 0.000136162 -0.00032576 0.000250508 5.52474e-05 
-6.67651e-05 0.000309642 -0.000210516 5.99129e-05 -0.000162109 -0.000278011 -3.876e-05 -0.000194708 0.000217486 0.000309206 
0.000550036 0.000774687 0.000666084 0.000736131 0.00032383 0.00010349 -0.000400474 -0.000794598 -0.00113676 -0.00145549 
-0.00147503 -0.00153488 -0.00124881 -0.00103155 -0.000577211 -0.000232468 0.000187923 0.000449956 0.000706165 0.000800479 
0.000832654 0.000771386 0.000683395 0.000563863 0.000467324 0.000373533 0.000319596 0.000276087 0.000213127 8.82702e-05 
-5.20649e-05 -0.000230364 -0.000298831 -0.00024466 -0.000171768 -0.00037372 -0.000862041 -0.00120021 -0.000555838 0.000255436 
-0.000225994 -0.000111833 -0.000722667 0.00292184 -0.0024551 0.0010459 0.000554326 -0.000259581 0.000451074 -8.0733e-05 
0.000954946 0.00394783 -0.00021106 -0.00155501 -0.0004082 8.92871e-05 0.00318429 0.00329398 0.00171851 0.00268913 
0.000124051 -0.00232331 -0.00406087 -0.00260684 0.00129262 0.00162713 0.000503036 -0.00111935 -0.000722692 0.000840207 
0.000466497 -0.000746459 -0.000321648 0.000954211 -0.000510391 -0.000575307 0.000802466 -7.13946e-05 -0.000914786 0.000820787 
0.000146511 -0.000550068 0.000518866 4.76666e-05 -0.000357319 0.000610625 -0.000197386 8.33585e-05 0.000337625 -0.000262998 
0.000156329 -2.1156e-05 -0.000227611 0.000192444 -0.000208339 0.000116241 5.86941e-05 -9.27048e-05 0.000111486 -0.00030759 
-0.000188537 -0.000490065 -0.00055735 -0.000531689 -0.000622804 -0.000307614 -0.000270187 0.000147864 0.000296013 0.000606446 
0.000750888 0.000831882 0.000850049 0.000704821 0.000604662 0.000355242 0.000243536 4.4484e-06 -3.34303e-05 -0.000150067 
-9.71661e-05 -0.000138579 -6.36084e-05 -0.000107165 -6.58734e-05 -0.000136601 -0.00011696 -0.000102072 6.29214e-05 0.000202954 
0.000393394 0.000373996 0.000187274 -7.89907e-05 -6.83412e-05 0.000198141 0.000278876 -0.00053795 -0.00122556 -0.000198347 
3.56529e-05 0.00132234 -0.00265056 0.00325071 -0.000626355 -0.000139122 0.000973149 0.000252287 8.49224e-05 0.00111867 
0.00128884 -0.00101586 -0.00249935 -0.00122739 -0.00108376 0.000678967 0.000329535 -0.00219818 -0.00283744 -0.00140229 
-0.000550834 0.00159598 0.00284179 0.00397902 0.00184957 -0.00162253 -0.00174631 4.88598e-05 0.00130516 0.000183662 
-0.000756791 -3.54804e-05 0.00083207 -0.000225659 -0.000796749 0.000558378 0.000218088 -0.000963186 0.000431619 0.00063692 
-0.000926457 9.44608e-05 0.000453199 -0.000625432 0.000270034 0.000164972 -0.000506758 0.000335587 -0.000218361 -0.000278524 
0.000248316 -0.000397928 0.000120673 -1.01364e-05 -0.000186368 0.000220964 -0.000194882 0.000142735 6.36791e-05 4.84863e-05 
0.000350313 0.00015247 0.000511752 0.000347461 0.000480524 0.000413211 0.000268188 0.000266913 -1.95302e-05 8.95172e-06 
-0.000232013 -0.000135957 -0.000227415 -8.0093e-05 -5.40261e-05 8.91657e-05 0.000170317 0.000225111 0.000257761 0.000223618 
0.000230701 0.000196636 0.000252611 0.000277904 0.000402824 0.000458578 0.000480875 0.000365181 0.00023504 8.42716e-05 
0.000116127 0.000313858 0.000471566 0.000285737 -0.000247377 -0.000522451 9.25862e-05 0.000568348 -0.000723721 -0.000611545 
-0.0017555 0.00329506 -0.00271426 0.00169022 0.0013935 -4.08588e-05 0.000648398 0.00110323 0.000373335 -0.000202755 
-0.000777169 0.000361835 0.0018862 0.000488263 0.00108826 0.00174776 -0.000204784 0.00019737 0.000767119 0.00224739 
0.000832839 -0.00143267 -0.00361085 -0.00418768 -0.00369587 -0.00117234 0.00183284 0.00160973 -0.000584091 -0.00113054 
0.000294896 0.0007853 -0.00041525 -0.000659445 0.000503603 0.000380235 -0.000717747 0.000129967 0.000890695 -0.000712058 
-0.000221906 0.000908341 -0.000276559 -0.000233377 0.000586231 -0.000523887 7.85038e-05 0.000286388 -0.000424416 0.000316006 
3.88371e-05 -0.000130497 0.000445285 -0.000164599 0.000253982 0.000165011 -6.70197e-05 0.000306736 -0.000163445 0.000100931 
-0.000117174 -0.00022415 -0.000118046 -0.0004245 -0.000173596 -0.000419743 -0.000189125 -0.000235385 -0.000105426 1.08041e-06 
-1.04559e-05 0.000131735 2.16241e-05 0.000159611 -1.17443e-05 0.0001021 -9.27909e-06 0.00011842 7.03702e-05 0.000187137 
0.000116908 0.000143657 7.98732e-06 -6.65288e-05 -0.000211576 -0.000170337 -0.000105842 9.13862e-05 0.000205735 0.000216426 
6.97126e-06 -4.86345e-05 0.000203808 0.000764961 0.000861546 -5.44977e-06 -0.000689898 0.000612609 0.000209111 0.00169715 
-0.00365653 0.00332582 -0.000960871 -0.000609493 0.00119632 0.000707331 0.000104594 0.000600551 0.00127939 0.000741067 
0.00087588 0.00352214 -0.000902091 -0.00309179 -0.000927565 -0.00139471 -0.00135974 -0.000212772 -0.000877418 0.000701246 
-0.00119325 0.000359834 0.00250743 0.00485757 0.00495095 0.00286887 0.00042283 -0.00207488 -0.00115552 0.000898141 
0.000959948 -0.000557774 -0.000650247 0.00073928 0.000181298 -0.000690657 -8.23398e-05 0.000756421 -0.000569986 -0.000542196 
0.000784748 -0.000116982 -0.000801973 0.000436599 -0.000113505 -0.000326302 0.000560576 -0.000255301 -3.62154e-05 0.000414788 
-0.000331978 0.000261103 -2.58503e-05 -0.000306845 0.000185243 -0.000429086 -3.06222e-05 -0.000166668 -0.000290003 5.70549e-05 
-0.000305581 9.1247e-05 -0.00011267 2.42336e-05 0.000106734 -3.2061e-05 0.000192818 -5.64238e-05 0.000163657 -4.11219e-05 
0.000113123 -1.01355e-05 3.00899e-05 1.17836e-05 -6.12478e-05 -9.22037e-05 -0.000273848 -0.00031729 -0.000532376 -0.000514487 
-0.00063708 -0.000501165 -0.000481975 -0.000284677 -0.000317063 -0.000259375 -0.000342939 -0.000261855 -8.66504e-05 0.000281751 
0.000412789 0.000161773 -0.000349127 -0.000320839 0.00065937 0.00125144 -0.000385853 2.9124e-05 -0.00189451 0.0039838 
-0.00347493 0.0013462 0.00158692 -0.000162356 0.000286681 0.00105182 0.000883497 0.000347179 0.000400774 0.00128261 
0.00196897 -0.000537799 -0.0049479 -0.000903369 0.00228463 0.00171386 0.00210793 0.000747155 0.000261784 0.00113494 
-0.00183325 -0.000681407 -0.00304614 -0.0040971 -0.00629197 -0.00532703 -0.00209607 0.000261466 0.00213195 0.000585767 
-0.00076892 -0.000739127 0.000746146 0.000265016 -0.000832589 0.000176827 0.000709917 -0.000247638 -0.000573289 0.000880742 
0.000120524 -0.0006828 0.000414141 0.000551756 -0.000431925 0.000383207 4.40073e-06 -0.000434502 0.000373702 -0.000254228 
-0.000215848 0.000178347 -0.000438514 0.000143368 3.95673e-05 -0.000112777 0.000401093 -0.000107925 0.000299758 0.00012022 
5.82626e-05 0.000316561 -4.33275e-05 0.000351751 4.96463e-05 0.000296551 0.000203455 0.000193325 0.000267925 5.66917e-05 
0.00022777 -7.65937e-05 8.79809e-05 -0.000159485 1.04446e-05 -9.06925e-05 7.49628e-05 6.43739e-05 0.000175945 0.000156387 
0.000143828 4.57452e-05 -3.6732e-05 -6.85538e-05 -7.75976e-05 -0.000114767 -0.000214736 -0.000520554 -0.000815026 -0.000872618 
-0.000363367 0.000272923 0.000323265 -0.000627831 -0.0010301 0.000933397 0.000381419 0.002629 -0.00383197 0.00430114 
-0.000651046 -0.00100298 0.00107559 0.000893771 6.93546e-05 3.56579e-05 0.000488737 0.000797461 0.000534382 0.00038915 
7.7891e-05 -0.00270249 -0.000757275 0.00370377 0.00194415 -0.000767494 -0.00230301 -0.00310338 -0.000898541 -0.000194931 
-0.00101755 0.00194522 0.0018787 0.00534623 0.00537789 0.00720854 0.00489116 0.00138179 -0.000924469 -0.00177327 
-2.47388e-05 0.000492626 0.000522279 -0.00077369 0.000144596 0.000548052 -0.000366293 -0.000657537 0.000555127 0.000149683 
-0.000879607 0.000187363 0.000505763 -0.000657677 -0.000160682 0.000207819 -0.000438991 0.000233443 0.000180433 -0.000362802 
0.000442495 -5.99577e-05 5.09208e-05 0.000475728 -0.000221276 0.000295766 -7.72068e-05 -0.000162332 0.000172777 -0.000306675 
0.000174314 -0.000130208 -4.10444e-05 3.21886e-05 -0.000304856 -1.63101e-05 -0.000449258 -0.00015104 -0.000443151 -0.000287607 
-0.000266774 -0.000255344 -8.21408e-05 -0.000165843 2.4191e-05 -0.000147215 2.36869e-05 -0.000175139 -3.14146e-05 -0.000193136 
-3.2069e-05 -0.000175249 -0.000119313 -0.00025738 -0.000135869 -7.50953e-05 0.000343103 0.000539977 0.000527991 -0.000176469 
-0.000841331 -0.00078124 0.000302404 0.000766067 -0.0013097 -0.000357625 -0.00276256 0.00443633 -0.00426646 0.00102301 
0.00186682 -6.86235e-05 0.000194309 0.00115318 0.00120495 0.000649157 0.000151975 0.000111413 0.000444262 0.00013588 
-0.000581711 3.86538e-05 0.00168462 0.000159683 -0.00259663 -0.00268141 -0.00106248 0.00179084 0.00343533 0.00160012 
-7.07837e-05 -0.000260647 -0.00272615 -0.0034825 -0.00741652 -0.00664188 -0.00752893 -0.0038466 -0.000707849 0.00154461 
0.00119263 -0.000195535 -0.00022147 -0.000317388 0.000434046 -0.000390068 -0.000118418 0.000404201 0.000461523 -0.000640784 
0.000290727 0.000653529 -0.000351901 -0.00022831 0.000674499 -0.000157521 6.52204e-05 0.000353848 -0.000385978 0.000191811 
0.000133418 -0.000376219 0.000247644 -0.00027978 -0.000329791 0.000160129 -0.000466936 0.000226389 -0.000136156 -0.000153888 
0.000127353 -0.000415207 8.78842e-05 -0.000323215 -1.91039e-05 -3.78161e-06 -5.56095e-05 0.000312013 6.59651e-05 0.000385524 
5.77513e-05 0.000286303 -7.31439e-06 6.01051e-05 -9.69181e-05 -8.73288e-05 -0.000111677 -8.78897e-05 4.65309e-05 7.95186e-05 
0.000336663 0.000477622 0.000678773 0.000629469 0.0004858 2.67295e-05 -0.000245995 -0.000196829 0.000457731 0.00101637 
0.000593251 -0.000693473 -0.00131267 0.000923059 -0.000340377 0.00242597 -0.00523872 0.00440442 -0.000776087 -0.00164096 
0.000718407 0.000932264 0.00025569 0.000236406 0.000625986 0.000787241 0.000661265 0.000263809 0.000169912 0.000291869 
0.00042483 0.00075401 -0.00188102 -0.00229439 9.63487e-05 0.00168508 0.00279859 0.00216098 -0.000723295 -0.00282576 
-0.00263621 -0.000473476 0.00107774 0.00351732 0.00497371 0.008721 0.00752521 0.007006 0.00247173 0.000114284 
-0.00178868 -0.000578559 4.26284e-05 1.28452e-05 0.000193057 0.000184165 0.000287507 -0.000254678 -0.000329455 -0.000102749 
0.000382909 -0.00047332 -0.000377913 0.000396425 -0.000107834 -0.000384955 0.000216789 -0.000243691 -0.000158838 0.000396392 
-0.000465774 0.000162957 0.000155033 -0.000329085 0.000493999 1.63205e-06 6.45753e-05 0.000392341 -0.000250832 0.000397465 
2.65379e-05 0.000189976 0.000457244 7.4551e-05 0.000553099 1.52158e-05 0.000295876 -8.96692e-05 -6.82933e-05 -3.74022e-05 
-0.000226172 6.44157e-05 -5.40398e-05 0.000365138 0.000229907 0.000615373 0.000415191 0.000562844 0.000272224 0.000149485 
-0.000244869 -0.000317295 -0.000412043 -4.16438e-05 0.000359844 0.000773631 0.00057934 -2.58906e-05 -0.000598019 6.42898e-05 
0.00130476 0.00178647 -0.000878198 0.000421662 -0.00284902 0.00518149 -0.00534293 -0.000115738 0.00118408 -0.00103499 
-0.000970534 0.000239027 0.000901687 0.000926898 0.000836456 0.000638846 0.000498453 0.000289069 6.00883e-05 0.000149511 
0.00059805 -0.00172559 -0.00293251 0.00197779 0.00318539 0.000191128 -0.0013184 -0.00303324 -0.00245575 -0.000127967 
0.00142682 0.00266921 0.000708037 -0.00164013 -0.0044537 -0.00625874 -0.00917431 -0.00766131 -0.00554675 -0.000876349 
0.000512843 0.00159516 0.000263553 0.000370117 8.68764e-05 -0.000390217 -0.000793442 0.000117941 0.000484203 5.90445e-05 
-0.00022117 8.60447e-05 0.000356136 0.000105245 -0.000249046 0.000248674 1.39388e-06 -8.05298e-05 0.000315469 -0.000207146 
-0.000180718 0.00042589 -0.000321698 8.65919e-05 0.000227934 -0.000531629 0.000253795 -0.000301017 -0.000150068 0.000153753 
-0.00043487 0.000109131 -0.000476135 -0.000271721 -0.000237715 -0.000468074 6.1285e-05 -0.000256654 0.000239432 -3.5431e-06 
0.000274009 2.01439e-05 -5.23898e-05 -0.000230343 -0.00046995 -0.000444284 -0.000606624 -0.000315935 -0.000183729 0.000259137 
0.000313155 0.000440119 -9.7628e-06 -0.000367579 -0.000740386 -0.000374758 0.000310808 0.000868698 5.56955e-05 -0.00117313 
-0.00147867 0.0014351 -4.66308e-05 0.00336299 -0.00534688 0.00569457 0.000164927 -0.001758 0.000385303 0.000414608 
-0.000635675 -0.000994887 -0.000479831 0.000191936 0.000693906 0.00079645 0.000670269 0.000470073 0.000142146 -0.000344789 
-0.000424462 -0.00251742 0.000650022 0.00423314 -0.000832062 -0.00372905 -0.00133872 0.00104226 0.00400144 0.00310681 
0.00069616 -0.000380959 -0.00218405 -0.000623637 0.00186271 0.00525719 0.00704843 0.00875257 0.00677691 0.00341661 
-0.000722651 -0.001076 -0.00112654 -0.000477626 -0.000943772 -9.91336e-06 0.00101409 0.00101885 -0.000669312 -0.000515598 
0.000476973 0.000227857 -0.000483643 -5.07306e-05 0.000160868 -9.8764e-05 -9.96494e-06 0.000217171 -0.000117186 -0.000186707 
0.000574977 -0.000124573 -0.000169463 0.000342618 -0.000274071 9.56086e-05 0.000320783 -0.000301959 0.000391105 -0.000193097 
6.14606e-06 0.000236687 -0.000149434 0.000427413 -3.1728e-05 0.000320655 4.32832e-05 -6.17353e-05 -9.19936e-06 -0.000310978 
1.16794e-05 -0.000214797 0.000310735 0.00016575 0.000521819 0.000378211 0.000379817 -3.38309e-05 -0.000258012 -0.000531101 
-0.00047215 -0.000218367 0.000224337 0.000312723 -0.000125522 -0.000980456 -0.00135411 -0.000356725 0.00101664 0.00123 
-0.00171158 6.82711e-05 -0.00328178 0.00615259 -0.00547413 0.000134453 0.0023674 -0.000106266 -0.000652449 5.31806e-05 
0.000259903 -0.000160506 -0.000499587 -0.000374248 9.74419e-05 0.000430851 0.000419951 0.000345555 0.000518643 -0.00034255 
-0.00096238 -0.000600117 0.00263144 0.000762286 -0.00419549 -0.000748183 0.00347029 0.00330847 0.000633698 -0.00421438 
-0.00422898 -0.00178795 -0.000490817 0.00127964 0.000145691 -0.00195312 -0.00566184 -0.00706337 -0.00737886 -0.00465678 
-0.000882825 0.00219977 0.001456 0.000762031 0.00121456 0.00157924 -0.000408934 -0.00186739 -0.000638997 0.00123283 
0.000203799 -0.00108301 0.000182408 0.000617461 -0.000404724 -0.000255665 0.00042126 -0.000435219 -0.000223087 0.000313623 
-0.00024387 -0.000633535 0.000300334 -0.000140972 -0.000222825 0.000279153 -0.000383686 3.28936e-05 0.000185823 -0.000223256 
0.000450651 -0.00010763 0.000218058 0.000193428 -0.000195816 0.000248285 -0.000132426 0.000362008 5.99132e-05 0.000343927 
0.000219569 7.63125e-05 9.77632e-05 -0.000170369 -1.11613e-05 -0.000123681 0.000287706 0.000291458 0.00053172 0.000199671 
-2.01251e-06 -0.000579557 -0.00042962 4.55759e-05 0.000989097 0.00113373 -0.000136353 -0.00160116 -0.00172317 0.0013026 
-0.000658918 0.00275269 -0.0071948 0.00529053 -0.000132379 -0.00252126 0.000301062 0.00126918 0.000581634 0.000126227 
0.00012036 0.000112361 -0.000218585 -0.000617506 -0.000547569 -6.36311e-05 0.000300981 1.17353e-05 0.000411524 0.000131435 
-0.000437584 0.00071647 0.000799102 -0.00199267 -0.00132979 0.00344077 0.00235975 -0.00157912 -0.00385977 -0.00235032 
0.00320939 0.0050198 0.00331799 0.00138436 -0.000132606 0.000590744 0.00210423 0.00546529 0.006176 0.00509963 
0.00147996 -0.00173873 -0.00339742 -0.00162745 -0.000921665 -0.00232888 -0.00213778 0.00128382 0.00251566 -0.000322643 
-0.00168409 0.00058244 0.00132316 -0.000849401 -0.0004173 0.000940267 -6.61388e-05 -0.000459128 0.000792889 4.71834e-05 
-0.000357452 0.000738963 0.000339977 -0.000303577 0.000348449 -4.27123e-05 -0.00012535 0.00041442 -0.000332764 -6.67378e-05 
-0.000115534 -0.000537496 -0.00012841 -0.000452598 -1.16095e-05 -0.000114028 -0.000146897 0.000102995 -0.000188275 0.000150184 
-0.000146386 0.000163019 1.12206e-05 0.000164047 -3.75328e-06 -4.16791e-05 -0.000149689 -4.96163e-06 0.000258296 0.000654822 
0.00102647 0.000730334 -4.01977e-05 -0.000995411 -0.00107953 0.000491158 0.00184381 0.00181449 -0.00141401 0.000601188 
-0.00290933 0.00749036 -0.00584649 -0.000529527 0.00227229 -0.000575479 -0.00168481 -0.000778575 8.14762e-06 0.000291118 
0.000332179 0.000467344 0.00061101 0.000243364 -0.000416286 -0.000801887 -0.000330265 -0.000321634 4.999e-05 0.000439779 
3.711e-06 -1.75539e-05 -0.00101894 -0.000243332 0.00198132 0.00154308 -0.00204287 -0.00240441 0.000434335 0.00382601 
0.00344199 -0.00147053 -0.00504821 -0.00489186 -0.00250399 -0.00117 -0.00137982 -0.00233347 -0.00450478 -0.0042845 
-0.00197096 0.00226561 0.0041517 0.00410632 0.00170798 0.00183099 0.00365187 0.00234776 -0.00252482 -0.00255936 
0.00170281 0.00182644 -0.0016886 -0.000856381 0.00152725 -0.000159005 -0.00120582 0.000777903 0.000146161 -0.000933099 
0.00031539 0.000133362 -0.000847073 0.000162011 0.000139565 -0.000258981 0.000272911 -4.71916e-05 -7.01053e-05 0.00042248 
-9.58513e-06 0.000527273 0.000466233 0.00025335 0.00033885 -8.03352e-05 0.000126852 -0.000191511 -5.89876e-05 5.31867e-05 
0.000199439 0.000463374 0.00056924 0.000912667 0.000924747 0.00102825 0.000532318 0.000239468 -0.000511391 -0.000756356 
-0.000514601 0.00047261 0.00129951 0.00125981 -0.000588847 -0.001758 -0.00148286 0.00192672 -7.401e-05 0.00338956 
-0.0075609 0.00646512 0.00108511 -0.00239354 0.000292081 0.00151585 0.000514903 -0.000396739 -0.000618292 -0.000434068 
-0.000199586 -0.000153046 0.000198224 0.000623318 0.00059706 -0.000257794 -0.000609966 -0.000855656 -0.000725526 0.000364257 
-0.000231864 -0.00115036 -8.18916e-05 0.00224203 0.000500407 -0.00225065 -0.00120651 0.00193569 0.00306756 0.000494557 
-0.00376418 -0.00401969 -0.000432665 0.00429197 0.00602416 0.00386862 0.00258025 0.00206246 0.0025027 0.00281612 
0.00144593 -0.00180909 -0.00587789 -0.00602505 -0.00416144 -0.0019537 -0.00346298 -0.00499366 -0.00181327 0.00384041 
0.00179658 -0.00330154 -0.00141701 0.00265198 -0.000305905 -0.0019845 0.00103141 0.000779453 -0.0015005 0.000463196 
0.000676466 -0.000767957 0.000184589 0.000387673 -0.000523456 0.000143563 -0.00012562 -0.000392061 -5.34167e-05 -0.000148326 
-8.49297e-05 -0.000165006 -0.000499077 -6.90302e-05 -1.88705e-05 0.000213142 0.00047445 0.000575576 0.000707606 0.000455143 
0.000407124 8.70659e-05 6.8746e-05 -0.00010573 0.000248137 0.000738837 0.00134491 0.00197285 0.00205603 0.00140576 
3.43552e-05 -0.00104257 -0.000997871 0.000859429 0.00178308 0.00118539 -0.00224145 -0.000187768 -0.0033842 0.00827884 
-0.00637687 -0.000930132 0.00325036 0.00063019 -0.000918509 -0.000155487 0.000667375 0.000607475 0.000171784 -0.000301388 
-0.000302927 -0.000293355 -0.000295608 5.13656e-05 0.000730823 0.000484512 -9.95795e-05 -0.000648723 -0.00150061 -0.000150847 
-0.000712595 -0.000930949 0.00189321 0.00158518 -0.00286833 -0.00149727 0.00299398 0.00247942 -0.000999183 -0.00398318 
-0.0018226 0.00359017 0.00446799 0.00221286 -0.00298069 -0.00637153 -0.00525207 -0.00397589 -0.00251636 -0.00228414 
-0.000537717 0.00212008 0.00582015 0.00862021 0.00695867 0.00362241 0.00267091 0.00557698 0.00594382 0.000190699 
-0.00485251 -0.000147885 0.00476727 0.000288726 -0.00302083 0.00190169 0.00193548 -0.00184775 0.0003731 0.00178836 
-0.00117909 0.000142541 0.00103822 -0.000449336 0.000356013 0.000364252 -0.000241861 0.000783563 0.00015381 -0.00010137 
1.52945e-05 -0.000136706 0.000185091 -0.000147679 -0.000128333 -0.000293373 -0.000405293 -0.000245321 -0.000189731 0.000452756 
0.00081295 0.00144452 0.00177856 0.00177533 0.00151047 0.000933897 0.000447785 0.000338257 0.000931253 0.00204022 
0.00253764 0.0017823 -0.000763887 -0.00183626 -0.0012328 0.0020555 -2.89383e-05 0.00295832 -0.00928352 0.00622907 
0.00100443 -0.00378303 -0.00105215 0.000932107 0.00057577 -0.000230054 -3.8796e-05 0.000407363 0.000782931 0.000552872 
0.000111837 -0.000132506 -0.000452872 -0.00071412 4.39331e-05 0.00071462 0.000455642 0.000271587 -0.00160246 -0.0007717 
-0.0006913 0.000206031 0.00228235 -0.00113313 -0.00320087 0.00237735 0.00350379 -0.00173048 -0.00337847 -0.000864311 
0.00426467 0.00358987 -0.00279039 -0.00488626 -0.00382047 0.00137596 0.0058553 0.00629178 0.00516108 0.00271603 
0.00135447 -0.00215804 -0.00600326 -0.00939598 -0.00993491 -0.00664135 -0.0028858 -0.00402978 -0.0076848 -0.00575655 
0.00252093 0.00517883 -0.00232979 -0.00544598 0.00153092 0.00254246 -0.0035706 -0.00112204 0.00219167 -0.00181067 
-0.00123268 0.0015933 -0.00126801 -0.000725791 0.000560873 -0.000803515 0.000184452 -0.000201073 -0.000534192 0.000620607 
-2.26506e-05 0.000578946 0.000503997 0.000273406 0.000828923 0.000270054 0.000885315 0.000527977 0.00070833 0.000649401 
0.000476176 0.0010381 0.00147046 0.00263898 0.00348433 0.00441802 0.00433931 0.00358845 0.00189826 0.00110355 
0.0012526 0.00324411 0.00318041 0.00155804 -0.00218555 -0.000622018 -0.00337621 0.00934982 -0.0068335 -0.00191567 
0.00375602 0.00102563 -0.00126589 -0.00120673 -0.000236585 -0.00023523 -0.000533771 -0.000636547 -0.00025833 0.000360629 
0.000563155 0.000609326 0.000574472 -0.000350851 -0.000890956 -0.00010822 8.97402e-05 0.00122799 -0.000641345 -0.00113541 
-0.000208772 0.000901223 0.000901063 -0.00254973 -0.000496749 0.00391785 -0.000207197 -0.0037871 -4.73241e-05 0.00320306 
0.0028106 -0.00342351 -0.00517265 0.00108428 0.00502975 0.00527992 0.00041171 -0.0046139 -0.00663719 -0.00584201 
-0.00261835 0.0004304 0.00510249 0.0096054 0.0117469 0.00960656 0.00510845 0.00247885 0.00584484 0.00901176 
0.00371421 -0.00579661 -0.00447281 0.00513822 0.00462411 -0.00371236 -0.00107166 0.00469366 -0.000558313 -0.0019499 
0.00282752 -0.000213519 -0.00126785 0.00206431 -0.000551242 -0.000477496 0.000886314 -0.0010344 0.00044012 -0.000394065 
-0.000886942 -3.64018e-07 -0.00125421 -7.33446e-05 -0.000317238 5.23263e-05 0.000851364 0.000474296 0.00169633 0.0015719 
0.00247084 0.00234157 0.00268091 0.00277136 0.00338162 0.00433188 0.00591612 0.00740256 0.00758897 0.00584575 
0.00246721 0.000981754 0.00169815 0.00363415 0.00163706 0.00300256 -0.0102848 0.00643449 0.00225028 -0.00418659 
-0.00148302 0.00125539 0.00131738 0.000195644 -0.000248337 -1.73802e-05 -4.58357e-05 -0.000313702 -0.000692252 -0.000633467 
-0.000294471 -0.000141005 0.00063749 0.00100994 -0.000122482 -0.000255293 -0.00110323 0.000636147 0.000613447 -0.000869842 
0.000189346 0.000578645 -0.000468715 -0.00156305 0.00166695 0.00170071 -0.00283283 -0.00101525 0.00318208 0.00137103 
-0.0023732 -0.00406208 0.00177651 0.00592553 0.00129862 -0.0045227 -0.00648517 -0.00238831 0.00290033 0.00613411 
0.00571437 0.00205708 -0.00290142 -0.00804635 -0.0122316 -0.012233 -0.0077487 -0.00281729 -0.0026876 -0.00765378 
-0.00875916 0.000268182 0.00879506 0.00255781 -0.00725064 -0.00203531 0.00561446 -0.00122202 -0.00440489 0.00297947 
0.00105178 -0.00296701 0.00200516 0.000326718 -0.00134229 0.00213366 -0.000390891 8.54218e-05 0.00171708 -0.000759913 