# vtk DataFile Version 2.0
Titre
ASCII
DATASET STRUCTURED_POINTS
DIMENSIONS 100 100 1
ORIGIN 0.0 0.0 0.0
SPACING 0.1 0.1 0.0
POINT_DATA 10000 
SCALARS rho float
LOOKUP_TABLE default
-0.00115153 -0.00388155 -0.00567056 -0.00235252 -0.00299487 0.00202371 0.00462639 0.00664892 0.00427729 -0.0024776 
-0.00591452 -0.00390238 0.00104477 0.00336036 0.00014064 7.83615e-05 -0.000743831 3.52872e-05 -0.00205526 0.00119797 
0.00171351 0.000322746 -0.00219715 0.000478885 0.00125279 6.86546e-06 -0.000949701 0.000348269 0.000337202 -7.47049e-05 
-0.000190117 8.37515e-05 0.000127297 -3.04995e-06 -9.64168e-05 0.000111828 5.95089e-05 -8.20091e-05 6.44013e-05 4.3262e-05 
-4.9534e-05 4.11868e-05 1.05261e-05 -2.26828e-05 2.41629e-05 -7.0341e-06 -3.69705e-06 8.74575e-06 -7.05898e-06 3.39256e-06 
-9.84897e-08 -1.37835e-06 1.82815e-06 -1.22965e-06 8.07402e-07 -1.69248e-07 1.10444e-07 3.10395e-07 1.37127e-07 5.12838e-07 
4.50889e-07 7.11448e-07 7.33929e-07 8.15707e-07 7.39096e-07 5.36661e-07 2.04977e-07 -4.29251e-07 -1.05505e-06 -2.23844e-06 
-3.03696e-06 -4.83106e-06 -5.59931e-06 -8.0281e-06 -8.62023e-06 -1.13034e-05 -1.08264e-05 -1.01124e-05 -8.85173e-07 2.24281e-05 
7.72772e-05 0.000192286 0.00040746 0.000780763 0.00137057 0.00220026 0.00324957 0.00432452 0.00517018 0.00536864 
0.00471988 0.00330902 0.00188931 0.00120702 0.0020862 0.00335336 0.00364822 0.00168158 -0.00071712 -0.0023598 
0.0014022 -0.00351485 0.00205116 -0.00249812 -0.000582916 0.00189632 0.00387249 0.00233282 -0.00368107 -0.00626353 
0.000580964 0.00466781 0.00550095 -0.00378366 -0.00257576 4.88366e-06 0.00197281 -0.00163922 0.000268838 0.00331233 
-0.000381182 -0.00305024 0.000582698 0.00338629 -0.000869632 -0.00186769 0.000960018 0.00116051 -0.000698186 -0.000308695 
0.000396631 0.000148041 -8.85054e-05 -0.000146296 0.000148677 0.000121968 -0.000194054 4.94698e-05 0.000132697 -0.000144926 
4.02856e-05 6.37765e-05 -8.50164e-05 4.39688e-05 7.67856e-06 -3.33831e-05 3.05859e-05 -1.41653e-05 -1.04062e-06 8.5496e-06 
-8.98938e-06 5.93743e-06 -2.37736e-06 1.3258e-08 1.18604e-06 -1.25605e-06 1.08375e-06 -6.74663e-07 2.32767e-07 -4.72977e-07 
-6.22145e-07 -1.14722e-06 -1.88899e-06 -2.76388e-06 -3.97079e-06 -5.31913e-06 -6.90105e-06 -8.56371e-06 -1.02677e-05 -1.18545e-05 
-1.32134e-05 -1.41128e-05 -1.44179e-05 -1.37986e-05 -1.21076e-05 -9.23993e-06 -5.08719e-06 -1.34367e-06 1.65036e-06 -3.59003e-06 
-1.81917e-05 -5.88058e-05 -0.000120049 -0.000211154 -0.000283473 -0.00027666 -4.91036e-05 0.000542027 0.00158944 0.00298849 
0.00435248 0.0050432 0.00465183 0.00337933 0.00226082 0.00273907 0.00390627 0.00437971 0.00122221 -0.00068781 
-0.0047718 -0.00413254 -0.00497166 -0.00528533 0.00202041 0.00773011 0.00858582 0.00425967 -0.00314435 0.000407041 
-0.000812657 -0.000204174 -0.00533025 -0.00185416 0.00603356 0.00321384 -0.00161282 -0.00463627 0.00395657 0.000290954 
-0.00157783 -0.000169536 0.00399706 -0.00212362 -0.0021269 0.00193956 0.00180895 -0.00215751 -0.000192938 0.00119185 
-0.000113067 -0.000545756 0.000203957 0.000141073 3.54357e-05 -0.000199715 3.81911e-05 0.000202457 -0.000200549 6.64206e-08 
0.000161452 -0.000153555 3.65577e-05 6.62923e-05 -9.13303e-05 5.46064e-05 -3.85369e-06 -2.72133e-05 3.20881e-05 -2.10858e-05 
6.96885e-06 2.81064e-06 -6.74817e-06 6.43541e-06 -4.52762e-06 2.09887e-06 -9.76022e-07 -5.75131e-07 -1.50119e-07 -1.34973e-06 
-6.90153e-07 -1.58741e-06 -1.25937e-06 -1.53038e-06 -1.1288e-06 -7.06984e-07 1.787e-07 1.30667e-06 2.73054e-06 4.2666e-06 
5.70912e-06 6.75607e-06 6.91892e-06 5.72436e-06 2.27477e-06 -3.89954e-06 -1.40375e-05 -2.70671e-05 -4.27164e-05 -5.22844e-05 
-4.74956e-05 1.32461e-07 0.000113092 0.000339899 0.000691992 0.00118168 0.00173017 0.0022319 0.00251673 0.00247429 
0.00208121 0.00149408 0.000892124 0.000580948 0.000723057 0.00152334 0.00315775 0.00387648 0.00252264 -0.00323325 
-0.00295719 -0.00209704 -0.00621837 -0.00112029 0.0032468 0.00246991 0.00140971 -0.00588907 -0.00137749 -0.000323036 
0.00164111 0.00223773 -0.000568355 0.00517524 -0.0011109 -0.00371608 -0.00494666 0.00448113 0.00413504 -0.00222138 
-0.00135424 0.00166859 -0.000573745 -0.00206632 0.00314695 0.000836754 -0.00314066 7.81142e-05 0.00271203 -0.00112126 
-0.00125753 0.00108874 0.000268751 -0.000567269 2.63816e-05 0.000183451 7.3157e-05 -0.000200371 -6.80332e-06 0.000232734 
-0.000206774 -6.19152e-07 0.000163625 -0.000166632 6.01765e-05 4.62383e-05 -8.83067e-05 6.92215e-05 -2.56305e-05 -1.02309e-05 
2.58407e-05 -2.46155e-05 1.54554e-05 -5.98722e-06 -5.07224e-07 3.37432e-06 -3.81409e-06 3.2894e-06 -1.6948e-06 1.97378e-06 
7.80356e-07 2.44549e-06 3.3304e-06 4.85967e-06 6.78631e-06 8.89983e-06 1.14728e-05 1.41787e-05 1.71902e-05 2.03787e-05 
2.39564e-05 2.818e-05 3.37445e-05 4.17325e-05 5.40367e-05 7.30639e-05 0.000102161 0.000143665 0.000199084 0.000262886 
0.000324694 0.000358473 0.000339151 0.000234619 5.61478e-05 -0.000150833 -0.000249267 -8.68467e-05 0.000465738 0.00134698 
0.00225346 0.00269271 0.00230937 0.00117843 6.68978e-05 -0.000188308 0.000697293 0.0022402 0.00250294 0.00146129 
-0.00303454 -0.00456968 -0.00293343 0.00325695 0.00318063 0.00753348 0.00272595 0.00281306 0.000891543 -0.00271126 
-0.000415846 -0.00504164 -0.00149329 0.000717488 0.00028289 0.00182668 0.00104384 0.00316301 -0.00471002 -0.00163322 
0.00155822 0.00209396 -0.00174519 0.00153053 -4.80863e-05 -0.0028054 0.00104715 0.00328691 -0.0024442 -0.00185311 
0.00257316 0.000310633 -0.00180474 0.000603639 0.000657025 -0.000475112 -0.000168695 0.000207073 0.000148065 -0.000246645 
-1.06803e-05 0.000259092 -0.000240941 3.16821e-05 0.000151096 -0.000185771 0.000101513 7.01887e-06 -7.11767e-05 7.78483e-05 
-4.97463e-05 1.52769e-05 8.7143e-06 -1.83412e-05 1.7947e-05 -1.24249e-05 7.16684e-06 -2.146e-06 6.44484e-07 1.72558e-06 
-4.72935e-07 1.82799e-06 -3.70305e-07 4.0035e-07 -1.57433e-06 -2.6189e-06 -5.24555e-06 -8.06495e-06 -1.2051e-05 -1.68647e-05 
-2.31659e-05 -3.15375e-05 -4.34913e-05 -6.13587e-05 -8.88342e-05 -0.000130749 -0.000192672 -0.000278737 -0.000388968 -0.000513277 
-0.000628362 -0.000691712 -0.000651517 -0.000453854 -8.23263e-05 0.000428492 0.000956495 0.00133981 0.00141961 0.00114561 
0.000607868 -1.99538e-05 -0.000574828 -0.000946666 -0.000961835 -0.000207884 0.00141427 0.0027929 0.00187059 -0.00221457 
-0.00626953 -0.00172648 -0.00545666 -0.00265065 0.000236943 0.000903641 -0.00196197 -0.00175012 -0.00414297 0.00368905 
0.0030199 -0.000636409 0.00310978 0.000634666 0.000748326 -0.00550139 -0.0010471 -6.746e-05 0.00120582 0.00298974 
0.000393125 -0.00242464 -0.00121355 0.00161921 -0.00096084 0.00115977 0.00154953 -0.00271681 -0.00144133 0.00392776 
-0.000385563 -0.00308868 0.00162395 0.00141246 -0.00168819 -1.44138e-05 0.000847379 -0.000277558 -0.000322052 0.000177162 
0.000242816 -0.000306266 2.30975e-06 0.000281607 -0.000292917 9.38895e-05 0.000112241 -0.000192822 0.000147906 -5.07344e-05 
-2.99125e-05 6.55794e-05 -6.23887e-05 4.02895e-05 -1.65494e-05 -2.41072e-07 8.14433e-06 -1.0596e-05 8.07742e-06 -7.46748e-06 
2.03216e-06 -5.08221e-06 -3.02036e-06 -6.15968e-06 -7.26702e-06 -9.41234e-06 -1.12799e-05 -1.2873e-05 -1.38097e-05 -1.32805e-05 
-1.02337e-05 -2.75847e-06 1.20184e-05 3.83613e-05 8.20176e-05 0.000149774 0.00024807 0.000379919 0.000540366 0.000710331 
0.000852492 0.000910598 0.000822059 0.000539461 7.06455e-05 -0.000495699 -0.000977575 -0.00116045 -0.000896658 -0.000238618 
0.000497672 0.00083936 0.000369335 -0.000938743 -0.0026075 -0.00369552 -0.00308025 -0.000308732 0.00284309 0.0017944 
-0.000320877 -0.0012124 -0.00562599 0.00520038 0.00586884 0.0034202 0.00139641 -0.00376838 0.00111458 0.00221694 
-0.00866891 -0.00478324 -0.000108805 0.0036567 -0.000804457 -0.000746805 0.00459467 0.000649236 -0.00149241 -0.0026482 
-0.00133081 0.000881163 0.0029219 0.000193535 -0.00190519 0.000139477 -0.000930892 0.000304992 0.00286989 -0.00141761 
-0.00334412 0.00308225 0.00164604 -0.00333686 0.000460392 0.00200082 -0.00129489 -0.00047289 0.000855846 -7.44615e-05 
-0.000422226 0.000140794 0.000322024 -0.000377704 5.19035e-05 0.000276083 -0.000347325 0.000187123 2.99027e-05 -0.000162542 
0.000176467 -0.000114397 3.57772e-05 2.09327e-05 -4.59206e-05 4.60964e-05 -3.46723e-05 2.03452e-05 -9.47354e-06 2.25803e-06 
1.56507e-06 -1.5912e-06 4.41942e-06 1.40148e-06 7.09467e-06 7.46003e-06 1.25459e-05 1.52762e-05 1.9383e-05 2.10946e-05 
2.01628e-05 1.28101e-05 -4.62936e-06 -3.8122e-05 -9.45233e-05 -0.000181257 -0.000303761 -0.000461719 -0.000643562 -0.000820608 
-0.000944008 -0.000948397 -0.000768406 -0.000367269 0.000224858 0.000887151 0.00141489 0.00158852 0.00127845 0.000541731 
-0.00037266 -0.0011717 -0.00167675 -0.00193972 -0.00203957 -0.00196722 -0.00168762 -0.00131929 -0.000792374 0.000287792 
-0.00229437 -0.00852067 -0.00291547 0.00666956 -0.00270862 0.000247137 -0.00450136 0.000539076 0.00912845 -0.000939242 
-0.00237835 0.00502635 0.00486937 -0.000963445 -0.00798084 0.000555845 0.000266695 -0.00172074 -2.88614e-06 0.00292569 
0.00147746 -3.42717e-05 -0.00182683 -0.00255107 0.00111444 0.00246642 -0.000201298 -0.000463451 -0.00130856 -0.0011439 
0.00333897 0.000587878 -0.00431662 0.00149911 0.00310926 -0.00292543 -0.000582818 0.00223065 -0.00087918 -0.000755256 
0.000790502 9.0247e-05 -0.000502473 0.000137219 0.000374191 -0.000471231 0.000160865 0.000212062 -0.000374681 0.000295317 
-0.000101477 -6.89925e-05 0.000150247 -0.000147893 0.000100889 -4.61652e-05 5.56846e-06 1.73432e-05 -2.33976e-05 2.35972e-05 
-1.58169e-05 1.40794e-05 -4.65796e-06 7.87194e-06 1.60959e-06 5.83276e-06 4.12406e-06 5.58033e-06 5.90312e-06 8.70169e-06 
1.43116e-05 2.6483e-05 4.89716e-05 8.78634e-05 0.000149834 0.000241744 0.000367512 0.000524177 0.000696234 0.000850572 
0.000935033 0.000885315 0.000644612 0.000195288 -0.000406012 -0.00101114 -0.00140597 -0.0013931 -0.000912252 -0.00013073 
0.00056338 0.000723429 4.19144e-05 -0.00143822 -0.00328672 -0.00459959 -0.00428476 -0.00208595 -1.40459e-05 -0.000943813 
-0.00493705 -0.00517899 0.00736651 -0.00013179 -0.00181614 -0.00143344 -0.00367233 0.00419922 -0.00115797 -0.0120064 
-0.00154637 0.000420889 0.00137129 -0.00363691 0.00451978 0.0059234 -0.00114639 -0.00206389 0.00105987 -0.00137662 
-0.00250358 -3.04733e-06 0.00139401 0.00171174 0.00179873 -0.00292096 -0.00237688 0.00174621 0.00177693 0.000234679 
-0.00111061 -0.00262981 0.00259085 0.00264965 -0.0042873 -0.000241846 0.00388505 -0.00220278 -0.00135449 0.00223332 
-0.00053383 -0.000909744 0.0007176 0.000209788 -0.000591332 0.000195551 0.000376785 -0.000573782 0.00033697 5.39396e-05 
-0.000320394 0.000365524 -0.000250612 8.84335e-05 3.86265e-05 -0.000101604 0.000110345 -8.90084e-05 5.81703e-05 -3.24214e-05 
1.1961e-05 -4.7265e-06 -5.84921e-06 -1.46961e-06 -1.15075e-05 -7.94454e-06 -1.67626e-05 -1.78672e-05 -2.5647e-05 -3.13951e-05 
-4.192e-05 -5.59921e-05 -7.88074e-05 -0.000114349 -0.000169284 -0.000249818 -0.000360057 -0.000497431 -0.000647305 -0.000777962 
-0.000839573 -0.000771887 -0.000524576 -8.82404e-05 0.000472772 0.00101046 0.00132289 0.00123926 0.000719223 -8.87471e-05 
-0.000902323 -0.00147004 -0.00172493 -0.00184244 -0.00208802 -0.00264306 -0.00326247 -0.00307601 -0.00146662 -0.000717513 
-0.00237817 0.00447221 0.00176712 -0.000979549 0.00191848 -8.97643e-05 0.00379992 0.00755918 -0.00241175 0.00157251 
0.00579225 0.00117785 -0.00283471 -0.00364252 0.000663019 -0.00619128 -0.00230882 0.00384935 0.00307578 -0.00209253 
0.00203924 0.00133769 -0.001504 -0.00183221 -0.000875382 -0.000514186 0.00432944 0.00086293 -0.00420922 -0.000993247 
0.00236027 0.00145873 -0.000296292 -0.00343945 0.00106267 0.00411265 -0.00354164 -0.00169809 0.00411752 -0.00149862 
-0.00180455 0.00212772 -0.000304728 -0.000978749 0.000677405 0.000278609 -0.000704311 0.000347614 0.000279297 -0.000630116 
0.000548929 -0.000213574 -0.000121154 0.000305009 -0.000323782 0.000240036 -0.000127997 3.41755e-05 2.24479e-05 -4.79996e-05 
4.97348e-05 -4.351e-05 3.12566e-05 -2.25189e-05 1.42826e-05 -8.36528e-06 6.94917e-06 -9.83512e-07 5.07898e-06 2.53048e-06 
5.27679e-06 6.51608e-06 1.36445e-05 2.85582e-05 5.95453e-05 0.000113865 0.000199011 0.000316358 0.000455906 0.000589672 
0.000669615 0.000634656 0.000430421 4.29712e-05 -0.000470745 -0.000967533 -0.00125605 -0.00117415 -0.00069833 2.04193e-06 
0.000597149 0.000739695 0.000217305 -0.000924397 -0.00236607 -0.00354293 -0.00389161 -0.00311782 -0.00124806 0.000698502 
0.00380938 -0.00356915 -0.0015214 0.00243642 -0.00217521 -0.00433228 0.0015046 -0.00274726 -0.00442648 0.000261844 
-0.0027837 -4.16236e-06 0.0016755 0.00775416 0.00118275 0.000432843 0.00363133 -0.000524522 -0.00708132 -0.000918292 
0.00346154 -0.00212783 -0.000698552 0.0031416 0.000891499 -0.00034305 -0.000980737 -0.00417988 0.00214744 0.0054254 
-0.00267466 -0.00380492 0.00138873 0.00236899 0.00083352 -0.00352138 -0.000561295 0.00482654 -0.00255276 -0.00268561 
0.00406102 -0.00100992 -0.00197725 0.00200796 -0.000202122 -0.00100103 0.000703791 0.000272733 -0.000827659 0.000612358 
1.07176e-05 -0.000528488 0.000683683 -0.000520504 0.000224372 3.93826e-05 -0.000192787 0.000237829 -0.000210203 0.000156283 
-9.63264e-05 5.76193e-05 -2.01925e-05 1.69457e-05 1.05891e-05 1.54213e-05 2.70985e-05 3.33188e-05 5.05275e-05 6.69784e-05 
9.0927e-05 0.000117019 0.000144269 0.000166137 0.000173065 0.000152801 9.21094e-05 -1.67742e-05 -0.000168957 -0.00033779 
-0.000471157 -0.000496687 -0.000346649 9.38606e-06 0.000518638 0.00103908 0.00136186 0.00131088 0.00083889 9.29101e-05 
-0.000649006 -0.00113553 -0.00130888 -0.0013461 -0.0015016 -0.00188493 -0.00235017 -0.00268167 -0.00254929 -0.000605167 
-0.0031014 -0.00796874 0.00961683 0.00140265 -0.00577262 -0.000501111 0.00525654 -0.000396837 0.00406481 -0.00413758 
-0.00150676 -0.000940354 -0.00074007 -0.00555816 -0.00896283 0.0024479 0.00243462 -0.00082267 0.0022199 0.00751331 
-0.00313849 -0.00439996 0.00310152 0.000184127 -0.00442318 0.00121366 0.00167213 0.00145865 0.00209173 -0.00516955 
-0.00317383 0.00713388 0.00114664 -0.00522466 -0.000331278 0.00257311 0.00188529 -0.00308411 -0.00188051 0.00499684 
-0.00170344 -0.00320222 0.00391763 -0.000805662 -0.00193194 0.00191299 -0.000209634 -0.00100736 0.000834241 0.000128266 
-0.000881019 0.000942286 -0.000465184 -0.000133119 0.000533602 -0.000643267 0.000535327 -0.000336233 0.000144138 -1.00646e-05 
-6.58727e-05 8.58952e-05 -9.27247e-05 6.06449e-05 -7.04941e-05 9.4432e-06 -6.75964e-05 -4.87066e-05 -0.000104311 -0.000128347 
-0.00018805 -0.000242778 -0.000311323 -0.000372557 -0.00041921 -0.000429397 -0.000384661 -0.00027035 -8.91811e-05 0.000129006 
0.000319578 0.000395219 0.000265978 -0.000102266 -0.000659017 -0.00123194 -0.00159247 -0.00154045 -0.00104484 -0.00028694 
0.000400423 0.000710471 0.000500594 -0.000199832 -0.00126139 -0.00235378 -0.00274614 -0.00176262 -0.000518462 -0.00202193 
-0.00432267 0.00928957 0.0123415 -0.00666671 -0.00603578 0.00686009 0.00313261 0.00232676 -5.72934e-05 -0.00424643 
0.00753786 0.00468011 0.00485006 -0.00159041 0.0062249 0.0052775 -0.00656682 -0.00652251 0.00110335 -0.0017556 
-0.00498477 0.00657756 0.00364418 -0.00509896 0.00115416 0.00470977 -0.00419221 -0.00207577 0.000149246 0.000675734 
0.00567442 -0.00216935 -0.00818541 0.00537326 0.00512553 -0.00508923 -0.00194854 0.00225871 0.00256056 -0.00242321 
-0.00274543 0.00490385 -0.00120849 -0.00330937 0.00378776 -0.000876691 -0.00170926 0.00184196 -0.000310409 -0.00100412 
0.00110022 -0.000263448 -0.000675752 0.00112829 -0.00100637 0.0005515 -5.94209e-05 -0.000286696 0.00044134 -0.000445839 
0.000370523 -0.000267168 0.000182128 -0.000101466 7.84496e-05 -1.03174e-05 6.33356e-05 5.73408e-05 0.000114064 0.000153857 
0.000229096 0.000305868 0.000400996 0.000488886 0.000560722 0.000586662 0.000544657 0.000415625 0.000204021 -5.04853e-05 
-0.000272729 -0.000351169 -0.000196841 0.000234357 0.00085299 0.00146932 0.0018162 0.00170794 0.00113718 0.000319599 
-0.000434944 -0.000902207 -0.00104027 -0.000922791 -0.000683986 -0.000648064 -0.00121704 -0.00182864 -0.000394657 0.00220403 
0.00780068 0.010017 -0.00222748 -0.0140002 0.000993816 0.00606452 -0.00347117 -0.000672426 -0.00845374 -0.00063458 
0.000931355 -0.00495944 -0.00710001 -0.00361923 0.00493727 -0.00242957 -0.000649978 0.00982676 0.00709923 -0.0049313 
-0.000512571 0.00240181 -0.00762766 -0.000879523 0.00671254 -0.00360967 -0.00331682 0.0071597 1.97625e-05 -0.00315188 
-0.00140353 -0.002696 0.00674742 0.00332845 -0.0107179 0.00159499 0.00794265 -0.00406918 -0.00303605 0.00179175 
0.00280952 -0.0018141 -0.00315664 0.00475804 -0.00114415 -0.00305118 0.00366015 -0.001151 -0.00134895 0.00179375 
-0.00052778 -0.000921791 0.00145238 -0.000973629 3.92342e-05 0.000758986 -0.00112955 0.00109004 -0.000812147 0.000476154 
-0.000194973 9.65988e-06 8.3223e-05 -0.000120119 0.000102505 -0.000107669 3.47411e-05 -0.000100109 -6.18592e-05 -0.000158071 
-0.000199857 -0.000298486 -0.000387245 -0.000484048 -0.000554697 -0.000577432 -0.000523791 -0.000376651 -0.000148582 0.000117822 
0.000321376 0.00036352 0.000132685 -0.000364088 -0.00103428 -0.00163439 -0.00191821 -0.00172291 -0.00110658 -0.000310419 
0.000370106 0.000735525 0.000687925 0.000169189 -0.000715535 -0.00142831 -0.0013241 -0.000753158 -0.000485739 0.00199317 
0.00309159 -0.00581503 -0.00848643 -0.00546475 0.00959151 -0.00146526 -0.000540201 -0.000175153 0.000233547 0.00638347 
0.00105881 -0.000128192 0.000675408 0.00566302 -0.00129213 -0.00907596 -0.00178761 -0.0012436 -0.00941775 -0.00289447 
0.0103281 0.00147201 -0.00242926 0.00635492 -0.00227938 -0.0066307 0.00632074 9.28227e-05 -0.00827389 0.00485485 
0.00448304 -0.00167312 -0.000939698 -0.00632537 0.00445338 0.00886721 -0.0105956 -0.00242604 0.00941652 -0.00298524 
-0.00351198 0.00142752 0.00273379 -0.00142264 -0.00316992 0.00464388 -0.00148615 -0.00243493 0.00343334 -0.00149922 
-0.000916951 0.00180425 -0.000973512 -0.000518628 0.00157635 -0.00175582 0.0012368 -0.000453145 -0.000231084 0.000646704 
-0.000793791 0.000754149 -0.000622402 0.000471534 -0.00032876 0.000236962 -0.000130168 0.000135881 2.51868e-06 0.000146647 
0.000138916 0.000249403 0.000306698 0.000395656 0.00044075 0.000445074 0.000368395 0.000210386 -2.42206e-05 -0.000258486 
-0.000424445 -0.000378989 -8.57642e-05 0.000472713 0.00112581 0.0016629 0.00184243 0.00157908 0.000966602 0.000237308 
-0.000390296 -0.000786079 -0.000861656 -0.000559075 -6.38258e-05 8.63895e-05 -0.000339861 -0.000523526 -3.09331e-05 -0.000327516 
-0.00317588 0.00155383 0.00449066 0.00902811 0.00264921 -0.00284743 0.00458184 0.000782359 0.00358288 -0.00164593 
-0.000730398 -0.000397766 0.00380439 0.00282428 -0.00138949 0.00534532 0.0118633 0.00145899 -0.00142953 0.005076 
-0.00290338 -0.0134454 0.0016929 0.00491344 -0.00499382 0.00398276 0.00495837 -0.00794624 0.00377126 0.00596575 
-0.0101262 -0.000837683 0.00626916 0.000412029 0.00149329 -0.00819769 6.9191e-05 0.0128426 -0.0089429 -0.00553407 
0.0100033 -0.00241641 -0.00343521 0.00124059 0.00246851 -0.00130711 -0.00282027 0.00450191 -0.00210342 -0.00149052 
0.00299545 -0.00178894 -0.000466386 0.00189197 -0.00178446 0.000606921 0.000761796 -0.00168062 0.00196043 -0.00174316 
0.00128593 -0.000805626 0.00042145 -0.000170604 2.79751e-05 2.05511e-05 -5.45273e-05 6.48194e-06 -6.57644e-05 -6.82619e-05 
-0.000117747 -0.000171679 -0.000219766 -0.000275088 -0.000290094 -0.000265334 -0.000171485 1.13666e-06 0.000200773 0.000412067 
0.00048263 0.000389256 2.17514e-05 -0.000516277 -0.00111339 -0.00153128 -0.00161854 -0.00133404 -0.000798575 -0.000189309 
0.000349781 0.000702048 0.000699253 0.000209619 -0.000541328 -0.000913109 -0.000521847 0.000273436 0.00125729 0.00178563 
0.00575886 0.00989451 0.00534589 -0.00480577 -0.0131056 0.00257115 -4.58552e-05 -0.0018456 -0.00517237 -0.00544121 
0.00115329 -0.00251244 -0.00121652 -0.00788514 -0.00470685 -0.000857203 -0.00533353 -0.0102335 0.00413424 0.00725747 
-0.000902914 0.00548039 0.0113621 -0.00811634 -0.00674388 0.00601982 -0.00428429 -0.00297032 0.00816961 -0.00637447 
-0.000997617 0.0115872 -0.00725279 -0.0064971 0.00527319 0.00131605 0.00456318 -0.00791106 -0.00455872 0.0150167 
-0.00717037 -0.00724564 0.0101943 -0.00261239 -0.00284207 0.00113757 0.0021432 -0.00146423 -0.00209203 0.0041363 
-0.00271777 -0.00038924 0.00237844 -0.00204881 0.000171851 0.00173747 -0.00264694 0.00240317 -0.00144493 0.000335765 
0.000537047 -0.00103347 0.00119148 -0.00112075 0.000941809 -0.000720669 0.000537128 -0.000344897 0.000269552 -9.65197e-05 
0.000163691 6.08954e-05 0.00016157 0.000145434 0.000149699 9.89728e-05 -1.97664e-05 -0.000152938 -0.000357911 -0.000460086 
-0.000510075 -0.000320756 1.935e-05 0.000518919 0.000984939 0.00128537 0.00130533 0.001064 0.000652831 0.000168189 
-0.000321125 -0.000691636 -0.000715833 -0.000272772 0.000305103 0.00038105 -0.000114465 -0.000292608 0.000650855 0.00313929 
0.00522132 -0.00144634 -0.00763658 -0.0199144 0.000761827 0.0118579 -0.00234873 -0.000621652 -0.00399124 0.00651428 
0.00479301 0.000125531 0.00165093 0.00154939 0.0083578 0.00383601 -0.00215051 0.000871881 0.00455452 -0.0108297 
-0.0112705 0.00199015 -0.00263137 -0.00556094 0.0134212 0.00460594 -0.00933525 0.00509109 0.00142348 -0.0080156 
0.00722507 -0.00340058 -0.00733758 0.0139882 -0.00123157 -0.00977932 0.00314413 0.000646682 0.00703487 -0.00631216 
-0.00812332 0.0159729 -0.00634937 -0.00739533 0.0101381 -0.00350361 -0.00173325 0.000928594 0.00187133 -0.00184636 
-0.00096987 0.00330169 -0.0029393 0.000516434 0.0018419 -0.00258328 0.00158923 0.000267895 -0.00198571 0.00298756 
-0.00319847 0.00285316 -0.00225418 0.00163999 -0.00113092 0.000761469 -0.000518229 0.000348615 -0.000261731 0.000153405 
-0.000152111 3.50186e-05 -9.78315e-05 -1.13718e-05 -3.39455e-05 7.62899e-05 0.000126306 0.000310415 0.00036999 0.000494354 
0.000404722 0.000252546 -8.76584e-05 -0.000454939 -0.000791284 -0.000973392 -0.000977011 -0.000825889 -0.000559223 -0.000181333 
0.000280836 0.000650977 0.000622588 8.77901e-05 -0.000528748 -0.000570865 8.994e-06 0.000577014 0.000806481 0.000896429 
-0.00316881 -5.03217e-05 -0.00750448 -0.000705299 0.024953 0.00568847 -0.00399662 0.000384993 0.00402671 0.00820823 
-0.00271144 -0.00249934 0.000542929 0.00164484 0.00110489 -0.00482346 -0.000147723 0.00863745 0.00469736 0.000188796 
0.0127773 0.00886387 -0.00919958 -0.00249158 0.00147853 -0.0136059 0.00145422 0.0119036 -0.00785892 0.000481988 
0.00804939 -0.00815819 0.00485186 0.000791876 -0.0132423 0.0122878 0.00502806 -0.0104731 0.00144409 -0.000965527 
0.00847871 -0.00463601 -0.0100056 0.0163271 -0.00699384 -0.00583526 0.00948976 -0.00463245 -0.000257937 0.000508209 
0.00166294 -0.0022667 0.000359044 0.00200272 -0.00261599 0.00109085 0.00136808 -0.00327729 0.00386374 -0.00322406 
0.00192924 -0.000585425 -0.000438819 0.00100874 -0.00119979 0.00110521 -0.000902555 0.000623814 -0.000422104 0.00020474 
-0.000135926 -2.68085e-06 -6.58917e-05 -8.33469e-05 -0.000151384 -0.000162312 -0.000324041 -0.000300579 -0.000452162 -0.000361336 
-0.000328556 -0.00010666 0.000117798 0.000373998 0.00055768 0.000658373 0.000682903 0.000647629 0.000514486 0.000206643 
-0.00025854 -0.000637522 -0.00057936 -4.35986e-05 0.000454737 0.000347464 -0.000135775 -6.12405e-05 0.00109776 0.00189438 
0.00362559 0.00875646 -0.00420076 0.0134218 0.00678549 -0.0177887 -0.00917602 -0.00140298 0.00127631 -0.00678153 
-0.00937834 -0.00216899 0.000526847 -0.00252929 -0.00487449 -0.0050598 0.000264368 -0.0033836 -0.0133665 -0.00594325 
0.00139794 -0.00751753 -0.00109245 0.017128 0.00339965 -0.00337374 0.00931385 -0.00752382 -0.0107014 0.0116791 
-0.00378571 -0.00685522 0.0107547 -0.00526811 0.00253906 0.00593224 -0.0167892 0.00797005 0.00943702 -0.00966181 
0.000835071 -0.0027249 0.00913873 -0.00389376 -0.00990614 0.0161335 -0.00891873 -0.00250068 0.00754854 -0.00510743 
0.00102901 0.000121251 0.00123829 -0.00221201 0.00121278 0.000943883 -0.00246304 0.00227346 -0.000562804 -0.00172972 
0.00368066 -0.00479446 0.00505868 -0.00468623 0.00401373 -0.00320028 0.00249057 -0.00177147 0.00132212 -0.000764243 
0.00063132 -0.000153004 0.000327644 0.000213685 0.000254543 0.000440755 0.000302079 0.000503833 0.000322057 0.000347333 
0.000143415 1.06746e-05 -0.000162515 -0.000269544 -0.00033226 -0.000377785 -0.000449845 -0.000530376 -0.000501835 -0.000229469 
0.000248935 0.00061677 0.000500503 -6.70569e-05 -0.000511713 -0.000326902 0.000218804 0.000439963 0.000601512 0.00288022 
0.00960051 -0.00332164 -0.00784067 0.00166795 -0.0174904 -0.0114879 0.00572715 0.00876796 -7.03358e-05 -0.00466805 
0.00491587 0.00738436 0.0034218 -0.000997321 0.00264101 0.00586611 0.00675599 0.00129626 0.0024989 0.0119498 
0.0002357 -0.00925868 -0.00051001 -0.00483298 -0.0182821 0.00333001 0.00929812 -0.00586024 0.00956836 0.00586301 
-0.0142035 0.00783942 0.00279156 -0.0128838 0.00870124 -0.00231351 0.000175421 0.0109557 -0.0174949 0.00338291 
0.0113811 -0.00850265 0.00121725 -0.00411673 0.0094097 -0.00458404 -0.00753689 0.0146064 -0.0109404 0.00197549 
0.00397043 -0.00406709 0.00136224 0.000244694 0.00022447 -0.00117244 0.000875817 0.000930736 -0.00326131 0.00493994 
-0.00539699 0.00475845 -0.00356249 0.00230952 -0.00138816 0.000795491 -0.000625656 0.00047097 -0.000620666 0.000366928 
-0.000628012 0.000113333 -0.000641502 -0.000130376 -0.000729592 -0.000307287 -0.000707978 -0.000365255 -0.000453877 -0.000180841 
-5.92723e-05 0.000111511 0.000179766 0.000174895 0.000137257 0.00015384 0.000281945 0.00045954 0.000500928 0.000238375 
-0.000252726 -0.000596829 -0.000431487 0.000124069 0.000462878 0.000204354 -0.000182803 3.37443e-05 0.000442592 0.00086979 
-0.000887827 -0.0135867 -0.000661359 -0.00322697 -0.00159765 0.016592 0.016756 0.00547854 -0.00584251 0.00477056 
0.0103675 0.00170662 -0.0028265 -0.000622858 0.00411154 0.000607394 -0.0037709 -0.00442657 0.00191513 0.00384194 
-0.00520432 0.00833407 0.0163197 0.00257321 0.00208558 0.0109369 -0.0132494 -0.0120612 0.00797468 -0.00768446 
-0.000390809 0.0141238 -0.0110623 0.00274892 0.0103003 -0.0145036 0.00448963 -0.000630398 -0.00249035 0.0146581 
-0.0162675 0.000345066 0.0111304 -0.00752498 0.00212065 -0.00485711 0.00930943 -0.00641295 -0.00287696 0.0104604 
-0.0107858 0.00544763 4.80875e-05 -0.00204599 0.00105198 0.000324863 -0.000416597 -0.000462122 0.00102177 -0.000373281 
-0.00141843 0.00366145 -0.0055678 0.00669648 -0.00687154 0.00634561 -0.00518552 0.00400414 -0.00253298 0.0017862 
-0.000632867 0.00084318 0.000118508 0.000855775 0.000366503 0.000930162 0.000494074 0.000676856 0.000332602 0.000184103 
-5.89598e-05 -0.000185939 -0.000193712 -9.7235e-05 1.32574e-05 7.94099e-06 -0.000169214 -0.000416411 -0.000496568 -0.000231658 
0.000260561 0.000565974 0.000353827 -0.000183571 -0.000443603 -0.000150878 0.000244828 0.000381675 0.000611372 -0.000488083 
-0.00784163 0.00273909 0.00889115 0.00121711 0.0137187 0.00846765 -0.00690595 -0.0177176 -0.0114983 0.00374175 
-0.00603614 -0.0142033 -0.00802079 -0.00124335 -0.00222311 -0.00697827 -0.0048928 0.000233775 1.92705e-05 -0.00732518 
-0.0110955 -0.00014686 -0.0111235 -0.0144361 0.00565834 0.00747711 -0.00269424 0.0172408 0.00659607 -0.0143256 
0.00601163 -0.0029745 -0.0116493 0.0134585 -0.00637924 -0.00316708 0.0158645 -0.0119869 0.00101076 -2.6199e-05 
-0.00508799 0.0164105 -0.0144231 -0.000344868 0.00904313 -0.00650537 0.00293532 -0.00466253 0.00813988 -0.00779862 
0.00266135 0.00360408 -0.00660086 0.00505512 -0.00131172 -0.00147876 0.00215314 -0.00175795 0.00186422 -0.00311857 
0.00507674 -0.00691076 0.00804394 -0.00841894 0.00817917 -0.00766041 0.00678585 -0.00592389 0.00452981 -0.00357583 
0.00180995 -0.00143242 -0.000291683 -0.000490718 -0.00109359 -0.000537146 -0.000973824 -0.000548894 -0.000449683 -0.00012325 
0.000112891 0.000237664 0.000203187 4.08624e-05 -0.000114818 -0.000114232 9.706e-05 0.000384689 0.000480815 0.000212587 
-0.000266025 -0.000526348 -0.000283445 0.00021387 0.000392404 7.91917e-05 -0.000231273 -4.26008e-05 0.000865412 0.00162431 
0.00265022 0.015722 -0.00270826 -0.00285098 0.00145783 -0.0155741 -0.01689 -0.00808249 0.0103992 0.00991314 
-0.0060824 -0.000164836 0.0110417 0.00807485 0.000549492 0.000627272 0.00599752 0.00654063 0.00153296 0.00213095 
0.00940285 0.0122123 -0.00298087 0.00343179 0.0039375 -0.0173021 -0.0128978 0.00365385 -0.011403 0.00360879 
0.0182371 -0.00834515 0.00371045 0.00708285 -0.0157625 0.00823362 -0.0024479 -0.00907989 0.0176501 -0.00781224 
-0.000395527 -9.56669e-07 -0.0068512 0.0161353 -0.0126728 0.00110345 0.00529994 -0.00473382 0.0030653 -0.00333152 
0.00481743 -0.00585132 0.00495406 -0.00202383 -0.00100448 0.00189992 -0.000395914 -0.00186527 0.00323609 -0.00340062 
0.00313003 -0.00326153 0.00403071 -0.00498529 0.00550486 -0.00506024 0.00385713 -0.00197638 0.00043844 0.00126674 
-0.00157227 0.00254386 -0.00132629 0.00215474 -7.29086e-05 0.00139219 0.000647235 0.000771944 0.000428894 0.000121899 
-0.0001357 -0.000269571 -0.000204897 -9.22264e-06 0.000173311 0.000175758 -5.12074e-05 -0.000353712 -0.000452141 -0.000186987 
0.000263786 0.000477858 0.000218771 -0.000231768 -0.000346473 -2.82188e-05 0.0002384 9.22653e-05 0.000116666 0.00264493 
0.0111009 0.000140137 -0.0187696 -0.00261665 -0.00383289 -0.00681302 0.00796996 0.0194617 0.0198912 0.00119667 
-0.00378362 0.0118432 0.0116085 -0.00133379 -0.00176123 0.00504387 0.00533571 -0.00107045 -0.00455234 0.000253887 
0.00102568 -0.00458085 -0.00479846 0.0135215 0.00809099 0.00368042 0.0191999 0.00548728 -0.0141438 0.00304923 
-0.00918637 -0.0145097 0.0143898 -0.00312443 -0.00163246 0.0154677 -0.012274 0.00354111 0.000807496 -0.0133923 
0.0158921 -0.0043263 0.000202591 -0.000456765 -0.00708326 0.0138283 -0.0105215 0.00332488 0.000474013 -0.00175666 
0.0024631 -0.0017773 4.48182e-05 0.000673418 -0.000144573 0.00022047 -0.00177529 0.00362688 -0.00440974 0.00419259 
-0.00411828 0.00517885 -0.00758172 0.0107563 -0.0137327 0.0153908 -0.0152945 0.0133614 -0.0107915 0.00761039 
-0.0055701 0.00290628 -0.00242595 0.000174744 -0.00115087 -0.000892499 -0.000816494 -0.000796636 -0.000416673 -0.000153496 
0.000150254 0.000272478 0.000205735 -3.1867e-06 -0.000197048 -0.000204298 2.06964e-05 0.000318521 0.000412894 0.000160241 